 +-------------------------------------------------+
 |                                                 |
 |      CCC   AA    SSS  TTTTT  EEEEE  PPPP        |
 |     C     A  A  S       T    E      P   P       |
 |     C     AAAA   SS     T    EEE    PPPP        |
 |     C     A  A     S    T    E      P           |
 |      CCC  A  A  SSS     T    EEEEE  P           |
 |                                                 |
 +-------------------------------------------------+
 |                                                 |
 | Welcome to Academic Release CASTEP version 9.0  |
 | Ab Initio Total Energy Program                  |
 |                                                 |
 | Authors:                                        |
 | M. Segall, M. Probert, C. Pickard, P. Hasnip,   |
 | S. Clark, K. Refson, J. R. Yates, M. Payne      |
 |                                                 |
 | Contributors:                                   |
 | P. Lindan, P. Haynes, J. White, V. Milman,      |
 | N. Govind, M. Gibson, P. Tulip, V. Cocula,      |
 | B. Montanari, D. Quigley, M. Glover,            |
 | L. Bernasconi, A. Perlov, M. Plummer,           |
 | E. McNellis, J. Meyer, J. Gale, D. Jochym       |
 | J. Aarons, B. Walker, R. Gillen, D. Jones       |
 | T. Green, I. J. Bush, C. J. Armstrong,          |
 | E. J. Higgins, M. D. Hodgson                    |
 |                                                 |
 | Copyright (c) 2000 - 2015                       |
 |                                                 |
 |     Distributed under the terms of an           |
 |     Agreement between the United Kingdom        |
 |     Car-Parrinello (UKCP) Consortium,           |
 |     Daresbury Laboratory and Accelrys, Inc.     |
 |                                                 |
 | Please cite                                     |
 |                                                 |
 |     "First principles methods using CASTEP"     |
 |                                                 |
 |         Zeitschrift fuer Kristallographie       |
 |           220(5-6) pp. 567-570 (2005)           |
 |                                                 |
 | S. J. Clark, M. D. Segall, C. J. Pickard,       |
 | P. J. Hasnip, M. J. Probert, K. Refson,         |
 | M. C. Payne                                     |
 |                                                 |
 |       in all publications arising from          |
 |              your use of CASTEP                 |
 |                                                 |
 +-------------------------------------------------+
 
 
 Compiled for linux_x86_64_ifort12 on Fri, 09 Oct 2015 16:14:59 +0100
 from code version 01cdeb6dcbec+  Thu, 01 Oct 2015 17:06:55 +0100
 Compiler: Intel Fortran 12.1.5.339; Optimisation: fast
 MATHLIBS: Intel MKL(11.0.5) (LAPACK version 3.4.1)
 FFT Lib : default
 Fundamental constants values: CODATA 2010
 
 Run started: Wed, 27 Apr 2016 12:35:23 +0100
 
 Atomic calculation performed for Ca: 1s2 2s2 2p6 3s2 3p6 4s2
 
 Converged in 44 iterations to an ae energy of -18468.059 eV
 
   ============================================================                
   | Pseudopotential Report - Date of generation 27-04-2016   |                
   ------------------------------------------------------------                
   | Element: Ca Ionic charge: 10.00 Level of theory: LDA     |                
   | Atomic Solver: Koelling-Harmon                           |                
   |                                                          |                
   |               Reference Electronic Structure             |                
   |         Orbital         Occupation         Energy        |                
   |            3s              2.000           -1.721        |                
   |            3p              6.000           -1.028        |                
   |            4s              2.000           -0.142        |                
   |                                                          |                
   |                 Pseudopotential Definition               |                
   |        Beta     l      e      Rc     scheme   norm       |                
   |          1      0   -1.721   2.005     qc      0         |                
   |          2      0   -0.142   2.005     qc      0         |                
   |          3      0    0.250   2.005     qc      0         |                
   |          4      1   -1.028   2.005     qc      0         |                
   |          5      1    0.250   2.005     qc      0         |                
   |          6      2    0.000   2.005     qc      0         |                
   |          7      2    0.250   2.005     qc      0         |                
   |         loc     3    0.000   2.005     pn      0         |                
   |                                                          |                
   | Augmentation charge Rinner = 1.401                       |                
   | Partial core correction Rc = 1.401                       |                
   ------------------------------------------------------------                
   | "3|2.0|7|8|9|30U:40:31:32"                               |                
   ------------------------------------------------------------                
   |      Author: Chris J. Pickard, Cambridge University      |                
   ============================================================                
 
 Pseudo atomic calculation performed for Ca 3s2 3p6 4s2
 
 Converged in 24 iterations to a total energy of -1001.5365 eV
 
 Calculation not parallelised.

 ************************************ Title ************************************
 MgO

 ***************************** General Parameters ******************************
  
 output verbosity                               : normal  (1)
 write checkpoint data to                       : ../0.check
 type of calculation                            : single point energy
 stress calculation                             : on
 density difference calculation                 : off
 electron localisation func (ELF) calculation   : off
 Hirshfeld analysis                             : off
 unlimited duration calculation
 timing information                             : on
 memory usage estimate                          : on
 write final potential to formatted file        : off
 write final density to formatted file          : off
 write BibTeX reference list                    : on
 write OTFG pseudopotential files               : on
 checkpoint writing                             : both castep_bin and check files
  
 output         length unit                     : A
 output           mass unit                     : amu
 output           time unit                     : ps
 output         charge unit                     : e
 output           spin unit                     : hbar/2
 output         energy unit                     : eV
 output          force unit                     : eV/A
 output       velocity unit                     : A/ps
 output       pressure unit                     : GPa
 output     inv_length unit                     : 1/A
 output      frequency unit                     : cm-1
 output force constant unit                     : eV/A**2
 output         volume unit                     : A**3
 output   IR intensity unit                     : (D/A)**2/amu
 output         dipole unit                     : D
 output         efield unit                     : eV/A/e
 output        entropy unit                     : J/mol/K
  
 wavefunctions paging                           : none
 random number generator seed                   : randomised (123523743)
 data distribution                              : optimal for this architecture
 optimization strategy                          : maximize speed(+++)

 *********************** Exchange-Correlation Parameters ***********************
  
 using functional                               : Local Density Approximation
 relativistic treatment                         : Koelling-Harmon
 DFT+D: Semi-empirical dispersion correction    : off

 ************************* Pseudopotential Parameters **************************
  
 pseudopotential representation                 : reciprocal space
 <beta|phi> representation                      : reciprocal space
 spin-orbit coupling                            : off

 **************************** Basis Set Parameters *****************************
  
 plane wave basis set cut-off                   :   280.0000   eV
 size of standard grid                          :     2.0000
 size of   fine   gmax                          :    17.1454   1/A
 finite basis set correction                    : automatic
 number of sample energies                      :          3
           sample  spacing                      :     5.0000   eV

 **************************** Electronic Parameters ****************************
  
 number of  electrons                           :  80.00    
 net charge of system                           :  0.000    
 treating system as non-spin-polarized
 number of bands                                :         48

 ********************* Electronic Minimization Parameters **********************
  
 Method: Treating system as metallic with density mixing treatment of electrons,
         and number of  SD  steps               :          1
         and number of  CG  steps               :          4
  
 total energy / atom convergence tol.           : 0.1000E-06   eV
 eigen-energy convergence tolerance             : 0.2000E-07   eV
 max force / atom convergence tol.              : ignored
 convergence tolerance window                   :          3   cycles
 max. number of SCF cycles                      :         60
 number of fixed-spin iterations                :         10
 smearing scheme                                : Gaussian
 smearing width                                 : 0.2000       eV
 Fermi energy convergence tolerance             : 0.2721E-13   eV
 periodic dipole correction                     : NONE

 ************************** Density Mixing Parameters **************************
  
 density-mixing scheme                          : Pulay
 max. length of mixing history                  :         30
 charge density mixing amplitude                : 0.8000    
 cut-off energy for mixing                      :  280.0       eV

 *********************** Population Analysis Parameters ************************
  
 Population analysis with cutoff                :  3.000       A

 *******************************************************************************
  
 
                           -------------------------------
                                      Unit Cell
                           -------------------------------
        Real Lattice(A)                      Reciprocal Lattice(1/A)
   4.2000000   0.0000000   0.0000000        1.4959965   0.0000000   0.0000000
   0.0000000   4.2000000   0.0000000        0.0000000   1.4959965   0.0000000
   0.0000000   0.0000000   4.2000000        0.0000000   0.0000000   1.4959965
 
                       Lattice parameters(A)       Cell Angles
                    a =    4.200000          alpha =   90.000000
                    b =    4.200000          beta  =   90.000000
                    c =    4.200000          gamma =   90.000000
 
                       Current cell volume =   74.088000       A**3
 
                           -------------------------------
                                     Cell Contents
                           -------------------------------
                         Total number of ions in cell =    8
                      Total number of species in cell =    1
                        Max number of any one species =    8
 
            xxxxxxxxxxxxxxxxxxxxxxxxxxxxxxxxxxxxxxxxxxxxxxxxxxxxxxxxxxxx
            x  Element    Atom        Fractional coordinates of atoms  x
            x            Number           u          v          w      x
            x----------------------------------------------------------x
            x  Ca           1         0.000000   0.000000   0.000000   x 
            x  Ca           2         0.500000   0.000000   0.000000   x 
            x  Ca           3         0.000000   0.500000   0.000000   x 
            x  Ca           4         0.500000   0.500000   0.000000   x 
            x  Ca           5         0.000000   0.000000   0.500000   x 
            x  Ca           6         0.500000   0.000000   0.500000   x 
            x  Ca           7         0.000000   0.500000   0.500000   x 
            x  Ca           8         0.500000   0.500000   0.500000   x 
            xxxxxxxxxxxxxxxxxxxxxxxxxxxxxxxxxxxxxxxxxxxxxxxxxxxxxxxxxxxx
 
 
                         No user defined ionic velocities
 
                           -------------------------------
                                   Details of Species
                           -------------------------------
 
                               Mass of species in AMU
                                    Ca   40.0780000
 
                          Electric Quadrupole Moment (Barn)
                                    Ca   -0.0408000 Isotope 43
 
                          Files used for pseudopotentials:
                                    Ca 3|2.0|7|8|9|30U:40:31:32
 
                           -------------------------------
                              k-Points For BZ Sampling
                           -------------------------------
                       MP grid size for SCF calculation is  3  3  3
                            with an offset of   0.000  0.000  0.000
                       Number of kpoints used =             4
 
                           -------------------------------
                               Symmetry and Constraints
                           -------------------------------
 
                      Cell is a supercell containing 8 primitive cells
                      Maximum deviation from symmetry = 0.940008E-15     ANG
 
                      Number of symmetry operations   =         384
                      Number of ionic constraints     =           3
                      Point group of crystal =    32: Oh, m-3m, 4/m -3 2/m
                      Space group of crystal =   221: Pm-3m, -P 4 2 3
 
             Set iprint > 1 for details on symmetry rotations/translations
 
                         Centre of mass is constrained
             Set iprint > 1 for details of linear ionic constraints
 
                         Number of cell constraints= 5
                         Cell constraints are:  1 1 1 0 0 0
 
                         External pressure/stress (GPa)
                          0.00000   0.00000   0.00000
                                    0.00000   0.00000
                                              0.00000
  
+---------------- MEMORY AND SCRATCH DISK ESTIMATES PER PROCESS --------------+
|                                                     Memory          Disk    |
| Baseline code, static data and system overhead      146.0 MB         0.0 MB |
| BLAS internal memory storage                          0.0 MB         0.0 MB |
| Model and support data                               47.4 MB         0.0 MB |
| Electronic energy minimisation requirements           8.4 MB         0.0 MB |
| Force calculation requirements                        1.8 MB         0.0 MB |
| Stress calculation requirements                       2.1 MB         0.0 MB |
|                                               ----------------------------- |
| Approx. total storage required per process          201.8 MB         0.0 MB |
|                                                                             |
| Requirements will fluctuate during execution and may exceed these estimates |
+-----------------------------------------------------------------------------+
Calculating finite basis set correction with  3 cut-off energies.
Calculating total energy with cut-off of  270.000eV.
------------------------------------------------------------------------ <-- SCF
SCF loop      Energy           Fermi           Energy gain       Timer   <-- SCF
                               energy          per atom          (sec)   <-- SCF
------------------------------------------------------------------------ <-- SCF
Initial  -6.40126248E+003  0.00000000E+000                         5.46  <-- SCF
      1  -7.82115920E+003  1.88546702E+001   1.77487090E+002       5.95  <-- SCF
      2  -7.97930107E+003  1.74956041E+001   1.97677330E+001       6.36  <-- SCF
      3  -7.98325907E+003  1.75031272E+001   4.94749989E-001       6.78  <-- SCF
      4  -7.98320125E+003  1.75236396E+001  -7.22693895E-003       7.24  <-- SCF
      5  -7.98319762E+003  1.75503488E+001  -4.53535859E-004       7.74  <-- SCF
      6  -7.98319760E+003  1.75483265E+001  -2.37228406E-006       8.22  <-- SCF
      7  -7.98319761E+003  1.75486949E+001   4.31848367E-007       8.64  <-- SCF
      8  -7.98319761E+003  1.75485761E+001   1.23704383E-009       8.98  <-- SCF
      9  -7.98319761E+003  1.75485999E+001   3.31612047E-009       9.31  <-- SCF
------------------------------------------------------------------------ <-- SCF
 
Final energy, E             =  -7983.099650442     eV
Final free energy (E-TS)    =  -7983.197608280     eV
(energies not corrected for finite basis set)
 
NB est. 0K energy (E-0.5TS)      =  -7983.148629361     eV
 
Calculating total energy with cut-off of  275.000eV.
------------------------------------------------------------------------ <-- SCF
SCF loop      Energy           Fermi           Energy gain       Timer   <-- SCF
                               energy          per atom          (sec)   <-- SCF
------------------------------------------------------------------------ <-- SCF
Initial  -7.98309965E+003  0.00000000E+000                         9.45  <-- SCF
      1  -7.98334031E+003  1.75481297E+001   3.00827519E-002       9.81  <-- SCF
      2  -7.98334039E+003  1.75481296E+001   9.70671713E-006      10.22  <-- SCF
      3  -7.98334025E+003  1.75507496E+001  -1.78977586E-005      10.64  <-- SCF
      4  -7.98334024E+003  1.75493789E+001  -3.22972462E-007      11.07  <-- SCF
      5  -7.98334024E+003  1.75499945E+001  -3.20196750E-007      11.46  <-- SCF
      6  -7.98334024E+003  1.75498923E+001  -1.82389526E-008      11.74  <-- SCF
      7  -7.98334024E+003  1.75498869E+001   4.16472712E-010      12.02  <-- SCF
------------------------------------------------------------------------ <-- SCF
 
Final energy, E             =  -7983.243284500     eV
Final free energy (E-TS)    =  -7983.340241634     eV
(energies not corrected for finite basis set)
 
NB est. 0K energy (E-0.5TS)      =  -7983.291763067     eV
 
Calculating total energy with cut-off of  280.000eV.
------------------------------------------------------------------------ <-- SCF
SCF loop      Energy           Fermi           Energy gain       Timer   <-- SCF
                               energy          per atom          (sec)   <-- SCF
------------------------------------------------------------------------ <-- SCF
Initial  -7.98324328E+003  0.00000000E+000                        12.16  <-- SCF
      1  -7.98342135E+003  1.75482387E+001   2.22577023E-002      12.46  <-- SCF
      2  -7.98342138E+003  1.75482380E+001   4.79537586E-006      12.80  <-- SCF
      3  -7.98342133E+003  1.75494871E+001  -6.57490711E-006      13.22  <-- SCF
      4  -7.98342133E+003  1.75486939E+001  -1.34243811E-007      13.59  <-- SCF
      5  -7.98342133E+003  1.75490831E+001  -8.41321283E-008      13.87  <-- SCF
      6  -7.98342133E+003  1.75489829E+001  -1.61183060E-008      14.14  <-- SCF
      7  -7.98342133E+003  1.75489757E+001   1.54485468E-010      14.41  <-- SCF
------------------------------------------------------------------------ <-- SCF
 
Final energy, E             =  -7983.324110312     eV
Final free energy (E-TS)    =  -7983.421330007     eV
(energies not corrected for finite basis set)
 
NB est. 0K energy (E-0.5TS)      =  -7983.372720160     eV
 
 For future reference: finite basis dEtot/dlog(Ecut) =      -5.603675eV
 Total energy corrected for finite basis set =   -7983.427657 eV
 
 ***************** Symmetrised Forces *****************
 *                                                    *
 *            Cartesian components (eV/A)             *
 * -------------------------------------------------- *
 *                   x            y            z      *
 *                                                    *
 * Ca        1      0.00000      0.00000      0.00000 *
 * Ca        2      0.00000      0.00000      0.00000 *
 * Ca        3      0.00000      0.00000      0.00000 *
 * Ca        4      0.00000      0.00000      0.00000 *
 * Ca        5      0.00000      0.00000      0.00000 *
 * Ca        6      0.00000      0.00000      0.00000 *
 * Ca        7      0.00000      0.00000      0.00000 *
 * Ca        8      0.00000      0.00000      0.00000 *
 *                                                    *
 ******************************************************
 
 *********** Symmetrised Stress Tensor ***********
 *                                               *
 *          Cartesian components (GPa)           *
 * --------------------------------------------- *
 *             x             y             z     *
 *                                               *
 *  x   -177.254003      0.000000      0.000000  *
 *  y      0.000000   -177.254003      0.000000  *
 *  z      0.000000      0.000000   -177.254003  *
 *                                               *
 *  Pressure:  177.2540                          *
 *                                               *
 *************************************************
 
 Pseudo atomic calculation performed for Ca 3s2 3p6 4s2
 
 Converged in 24 iterations to a total energy of -1001.5365 eV
 
Charge spilling parameter for spin component 1 = 0.24%
 
     Atomic Populations (Mulliken)
     -----------------------------
Species   Ion     s      p      d      f     Total  Charge (e)
==============================================================
  Ca       1     2.01   5.74   2.25   0.00  10.00     0.00
  Ca       2     2.01   5.74   2.25   0.00  10.00     0.00
  Ca       3     2.01   5.74   2.25   0.00  10.00     0.00
  Ca       4     2.01   5.74   2.25   0.00  10.00     0.00
  Ca       5     2.01   5.74   2.25   0.00  10.00     0.00
  Ca       6     2.01   5.74   2.25   0.00  10.00     0.00
  Ca       7     2.01   5.74   2.25   0.00  10.00     0.00
  Ca       8     2.01   5.74   2.25   0.00  10.00     0.00
==============================================================
 
            Bond              Population      Length (A)
============================================================
         Ca 7 -- Ca 8             -0.47        2.10000
         Ca 6 -- Ca 8             -0.47        2.10000
         Ca 5 -- Ca 7             -0.47        2.10000
         Ca 5 -- Ca 6             -0.47        2.10000
         Ca 4 -- Ca 8             -0.47        2.10000
         Ca 3 -- Ca 7             -0.47        2.10000
         Ca 3 -- Ca 4             -0.47        2.10000
         Ca 2 -- Ca 6             -0.47        2.10000
         Ca 2 -- Ca 4             -0.47        2.10000
         Ca 1 -- Ca 5             -0.47        2.10000
         Ca 1 -- Ca 3             -0.47        2.10000
         Ca 1 -- Ca 2             -0.47        2.10000
         Ca 6 -- Ca 7              0.30        2.96985
         Ca 5 -- Ca 8              0.30        2.96985
         Ca 4 -- Ca 7              0.30        2.96985
         Ca 4 -- Ca 6              0.30        2.96985
         Ca 3 -- Ca 8              0.30        2.96985
         Ca 3 -- Ca 5              0.30        2.96985
         Ca 2 -- Ca 8              0.30        2.96985
         Ca 2 -- Ca 5              0.30        2.96985
         Ca 2 -- Ca 3              0.30        2.96985
         Ca 1 -- Ca 7              0.30        2.96985
         Ca 1 -- Ca 6              0.30        2.96985
         Ca 1 -- Ca 4              0.30        2.96985
============================================================
 

Writing analysis data to ../0.castep_bin

Writing model to ../0.check
 
 A BibTeX formatted list of references used in this run has been written to 
 ../0.bib
 
Initialisation time =      4.80 s
Calculation time    =     11.62 s
Finalisation time   =      0.38 s
Total time          =     16.80 s
Peak Memory Use     = 437216 kB
 +-------------------------------------------------+
 |                                                 |
 |      CCC   AA    SSS  TTTTT  EEEEE  PPPP        |
 |     C     A  A  S       T    E      P   P       |
 |     C     AAAA   SS     T    EEE    PPPP        |
 |     C     A  A     S    T    E      P           |
 |      CCC  A  A  SSS     T    EEEEE  P           |
 |                                                 |
 +-------------------------------------------------+
 |                                                 |
 | Welcome to Academic Release CASTEP version 9.0  |
 | Ab Initio Total Energy Program                  |
 |                                                 |
 | Authors:                                        |
 | M. Segall, M. Probert, C. Pickard, P. Hasnip,   |
 | S. Clark, K. Refson, J. R. Yates, M. Payne      |
 |                                                 |
 | Contributors:                                   |
 | P. Lindan, P. Haynes, J. White, V. Milman,      |
 | N. Govind, M. Gibson, P. Tulip, V. Cocula,      |
 | B. Montanari, D. Quigley, M. Glover,            |
 | L. Bernasconi, A. Perlov, M. Plummer,           |
 | E. McNellis, J. Meyer, J. Gale, D. Jochym       |
 | J. Aarons, B. Walker, R. Gillen, D. Jones       |
 | T. Green, I. J. Bush, C. J. Armstrong,          |
 | E. J. Higgins, M. D. Hodgson                    |
 |                                                 |
 | Copyright (c) 2000 - 2015                       |
 |                                                 |
 |     Distributed under the terms of an           |
 |     Agreement between the United Kingdom        |
 |     Car-Parrinello (UKCP) Consortium,           |
 |     Daresbury Laboratory and Accelrys, Inc.     |
 |                                                 |
 | Please cite                                     |
 |                                                 |
 |     "First principles methods using CASTEP"     |
 |                                                 |
 |         Zeitschrift fuer Kristallographie       |
 |           220(5-6) pp. 567-570 (2005)           |
 |                                                 |
 | S. J. Clark, M. D. Segall, C. J. Pickard,       |
 | P. J. Hasnip, M. J. Probert, K. Refson,         |
 | M. C. Payne                                     |
 |                                                 |
 |       in all publications arising from          |
 |              your use of CASTEP                 |
 |                                                 |
 +-------------------------------------------------+
 
 
 Compiled for linux_x86_64_ifort12 on Fri, 09 Oct 2015 16:14:59 +0100
 from code version 01cdeb6dcbec+  Thu, 01 Oct 2015 17:06:55 +0100
 Compiler: Intel Fortran 12.1.5.339; Optimisation: fast
 MATHLIBS: Intel MKL(11.0.5) (LAPACK version 3.4.1)
 FFT Lib : default
 Fundamental constants values: CODATA 2010
 
 Run started: Wed, 27 Apr 2016 12:36:03 +0100
 
 Atomic calculation performed for Ca: 1s2 2s2 2p6 3s2 3p6 4s2
 
 Converged in 44 iterations to an ae energy of -18468.059 eV
 
   ============================================================                
   | Pseudopotential Report - Date of generation 27-04-2016   |                
   ------------------------------------------------------------                
   | Element: Ca Ionic charge: 10.00 Level of theory: LDA     |                
   | Atomic Solver: Koelling-Harmon                           |                
   |                                                          |                
   |               Reference Electronic Structure             |                
   |         Orbital         Occupation         Energy        |                
   |            3s              2.000           -1.721        |                
   |            3p              6.000           -1.028        |                
   |            4s              2.000           -0.142        |                
   |                                                          |                
   |                 Pseudopotential Definition               |                
   |        Beta     l      e      Rc     scheme   norm       |                
   |          1      0   -1.721   2.005     qc      0         |                
   |          2      0   -0.142   2.005     qc      0         |                
   |          3      0    0.250   2.005     qc      0         |                
   |          4      1   -1.028   2.005     qc      0         |                
   |          5      1    0.250   2.005     qc      0         |                
   |          6      2    0.000   2.005     qc      0         |                
   |          7      2    0.250   2.005     qc      0         |                
   |         loc     3    0.000   2.005     pn      0         |                
   |                                                          |                
   | Augmentation charge Rinner = 1.401                       |                
   | Partial core correction Rc = 1.401                       |                
   ------------------------------------------------------------                
   | "3|2.0|7|8|9|30U:40:31:32"                               |                
   ------------------------------------------------------------                
   |      Author: Chris J. Pickard, Cambridge University      |                
   ============================================================                
 
 Pseudo atomic calculation performed for Ca 3s2 3p6 4s2
 
 Converged in 24 iterations to a total energy of -1001.5365 eV
 
 Calculation not parallelised.

 ************************************ Title ************************************
 MgO

 ***************************** General Parameters ******************************
  
 output verbosity                               : normal  (1)
 write checkpoint data to                       : ../0.check
 type of calculation                            : single point energy
 stress calculation                             : on
 density difference calculation                 : off
 electron localisation func (ELF) calculation   : off
 Hirshfeld analysis                             : off
 unlimited duration calculation
 timing information                             : on
 memory usage estimate                          : on
 write final potential to formatted file        : off
 write final density to formatted file          : off
 write BibTeX reference list                    : on
 write OTFG pseudopotential files               : on
 checkpoint writing                             : both castep_bin and check files
  
 output         length unit                     : A
 output           mass unit                     : amu
 output           time unit                     : ps
 output         charge unit                     : e
 output           spin unit                     : hbar/2
 output         energy unit                     : eV
 output          force unit                     : eV/A
 output       velocity unit                     : A/ps
 output       pressure unit                     : GPa
 output     inv_length unit                     : 1/A
 output      frequency unit                     : cm-1
 output force constant unit                     : eV/A**2
 output         volume unit                     : A**3
 output   IR intensity unit                     : (D/A)**2/amu
 output         dipole unit                     : D
 output         efield unit                     : eV/A/e
 output        entropy unit                     : J/mol/K
  
 wavefunctions paging                           : none
 random number generator seed                   : randomised (123604068)
 data distribution                              : optimal for this architecture
 optimization strategy                          : maximize speed(+++)

 *********************** Exchange-Correlation Parameters ***********************
  
 using functional                               : Local Density Approximation
 relativistic treatment                         : Koelling-Harmon
 DFT+D: Semi-empirical dispersion correction    : off

 ************************* Pseudopotential Parameters **************************
  
 pseudopotential representation                 : reciprocal space
 <beta|phi> representation                      : reciprocal space
 spin-orbit coupling                            : off

 **************************** Basis Set Parameters *****************************
  
 plane wave basis set cut-off                   :   280.0000   eV
 size of standard grid                          :     2.0000
 size of   fine   gmax                          :    17.1454   1/A
 finite basis set correction                    : automatic
 number of sample energies                      :          3
           sample  spacing                      :     5.0000   eV

 **************************** Electronic Parameters ****************************
  
 number of  electrons                           :  80.00    
 net charge of system                           :  0.000    
 treating system as non-spin-polarized
 number of bands                                :         48

 ********************* Electronic Minimization Parameters **********************
  
 Method: Treating system as metallic with density mixing treatment of electrons,
         and number of  SD  steps               :          1
         and number of  CG  steps               :          4
  
 total energy / atom convergence tol.           : 0.1000E-06   eV
 eigen-energy convergence tolerance             : 0.2000E-07   eV
 max force / atom convergence tol.              : ignored
 convergence tolerance window                   :          3   cycles
 max. number of SCF cycles                      :         60
 number of fixed-spin iterations                :         10
 smearing scheme                                : Gaussian
 smearing width                                 : 0.2000       eV
 Fermi energy convergence tolerance             : 0.2721E-13   eV
 periodic dipole correction                     : NONE

 ************************** Density Mixing Parameters **************************
  
 density-mixing scheme                          : Pulay
 max. length of mixing history                  :         30
 charge density mixing amplitude                : 0.8000    
 cut-off energy for mixing                      :  280.0       eV

 *********************** Population Analysis Parameters ************************
  
 Population analysis with cutoff                :  3.000       A

 *******************************************************************************
  
 
                           -------------------------------
                                      Unit Cell
                           -------------------------------
        Real Lattice(A)                      Reciprocal Lattice(1/A)
   4.2000000   0.0000000   0.0000000        1.4959965   0.0000000   0.0000000
   0.0000000   4.2000000   0.0000000        0.0000000   1.4959965   0.0000000
   0.0000000   0.0000000   4.2000000        0.0000000   0.0000000   1.4959965
 
                       Lattice parameters(A)       Cell Angles
                    a =    4.200000          alpha =   90.000000
                    b =    4.200000          beta  =   90.000000
                    c =    4.200000          gamma =   90.000000
 
                       Current cell volume =   74.088000       A**3
 
                           -------------------------------
                                     Cell Contents
                           -------------------------------
                         Total number of ions in cell =    8
                      Total number of species in cell =    1
                        Max number of any one species =    8
 
            xxxxxxxxxxxxxxxxxxxxxxxxxxxxxxxxxxxxxxxxxxxxxxxxxxxxxxxxxxxx
            x  Element    Atom        Fractional coordinates of atoms  x
            x            Number           u          v          w      x
            x----------------------------------------------------------x
            x  Ca           1         0.000000   0.000000   0.000000   x 
            x  Ca           2         0.500000   0.000000   0.000000   x 
            x  Ca           3         0.000000   0.500000   0.000000   x 
            x  Ca           4         0.500000   0.500000   0.000000   x 
            x  Ca           5         0.000000   0.000000   0.500000   x 
            x  Ca           6         0.500000   0.000000   0.500000   x 
            x  Ca           7         0.000000   0.500000   0.500000   x 
            x  Ca           8         0.500000   0.500000   0.500000   x 
            xxxxxxxxxxxxxxxxxxxxxxxxxxxxxxxxxxxxxxxxxxxxxxxxxxxxxxxxxxxx
 
 
                         No user defined ionic velocities
 
                           -------------------------------
                                   Details of Species
                           -------------------------------
 
                               Mass of species in AMU
                                    Ca   40.0780000
 
                          Electric Quadrupole Moment (Barn)
                                    Ca   -0.0408000 Isotope 43
 
                          Files used for pseudopotentials:
                                    Ca 3|2.0|7|8|9|30U:40:31:32
 
                           -------------------------------
                              k-Points For BZ Sampling
                           -------------------------------
                       MP grid size for SCF calculation is  3  3  3
                            with an offset of   0.000  0.000  0.000
                       Number of kpoints used =             4
 
                           -------------------------------
                               Symmetry and Constraints
                           -------------------------------
 
                      Cell is a supercell containing 8 primitive cells
                      Maximum deviation from symmetry = 0.940008E-15     ANG
 
                      Number of symmetry operations   =         384
                      Number of ionic constraints     =           3
                      Point group of crystal =    32: Oh, m-3m, 4/m -3 2/m
                      Space group of crystal =   221: Pm-3m, -P 4 2 3
 
             Set iprint > 1 for details on symmetry rotations/translations
 
                         Centre of mass is constrained
             Set iprint > 1 for details of linear ionic constraints
 
                         Number of cell constraints= 5
                         Cell constraints are:  1 1 1 0 0 0
 
                         External pressure/stress (GPa)
                          0.00000   0.00000   0.00000
                                    0.00000   0.00000
                                              0.00000
  
+---------------- MEMORY AND SCRATCH DISK ESTIMATES PER PROCESS --------------+
|                                                     Memory          Disk    |
| Baseline code, static data and system overhead      146.0 MB         0.0 MB |
| BLAS internal memory storage                          0.0 MB         0.0 MB |
| Model and support data                               47.4 MB         0.0 MB |
| Electronic energy minimisation requirements           8.4 MB         0.0 MB |
| Force calculation requirements                        1.8 MB         0.0 MB |
| Stress calculation requirements                       2.1 MB         0.0 MB |
|                                               ----------------------------- |
| Approx. total storage required per process          201.8 MB         0.0 MB |
|                                                                             |
| Requirements will fluctuate during execution and may exceed these estimates |
+-----------------------------------------------------------------------------+
Calculating finite basis set correction with  3 cut-off energies.
Calculating total energy with cut-off of  270.000eV.
------------------------------------------------------------------------ <-- SCF
SCF loop      Energy           Fermi           Energy gain       Timer   <-- SCF
                               energy          per atom          (sec)   <-- SCF
------------------------------------------------------------------------ <-- SCF
Initial  -6.38782119E+003  0.00000000E+000                         5.52  <-- SCF
      1  -7.81353602E+003  1.92215132E+001   1.78214353E+002       6.01  <-- SCF
      2  -7.97925603E+003  1.74982403E+001   2.07150009E+001       6.40  <-- SCF
      3  -7.98324869E+003  1.74962475E+001   4.99082277E-001       6.81  <-- SCF
      4  -7.98320120E+003  1.75232923E+001  -5.93613800E-003       7.28  <-- SCF
      5  -7.98319764E+003  1.75505100E+001  -4.44871170E-004       7.77  <-- SCF
      6  -7.98319760E+003  1.75483459E+001  -4.07214315E-006       8.25  <-- SCF
      7  -7.98319761E+003  1.75486969E+001   4.84814840E-007       8.69  <-- SCF
      8  -7.98319761E+003  1.75485748E+001   9.94971485E-010       9.05  <-- SCF
      9  -7.98319761E+003  1.75485992E+001   3.39713350E-009       9.38  <-- SCF
------------------------------------------------------------------------ <-- SCF
 
Final energy, E             =  -7983.099650401     eV
Final free energy (E-TS)    =  -7983.197608284     eV
(energies not corrected for finite basis set)
 
NB est. 0K energy (E-0.5TS)      =  -7983.148629342     eV
 
Calculating total energy with cut-off of  275.000eV.
------------------------------------------------------------------------ <-- SCF
SCF loop      Energy           Fermi           Energy gain       Timer   <-- SCF
                               energy          per atom          (sec)   <-- SCF
------------------------------------------------------------------------ <-- SCF
Initial  -7.98309965E+003  0.00000000E+000                         9.52  <-- SCF
      1  -7.98334031E+003  1.75481293E+001   3.00827536E-002       9.89  <-- SCF
      2  -7.98334039E+003  1.75481293E+001   9.71437625E-006      10.30  <-- SCF
      3  -7.98334025E+003  1.75507497E+001  -1.79024171E-005      10.73  <-- SCF
      4  -7.98334024E+003  1.75493786E+001  -3.22270220E-007      11.17  <-- SCF
      5  -7.98334024E+003  1.75499945E+001  -3.20560632E-007      11.56  <-- SCF
      6  -7.98334024E+003  1.75498923E+001  -1.82325721E-008      11.85  <-- SCF
      7  -7.98334024E+003  1.75498870E+001   4.33100685E-010      12.14  <-- SCF
------------------------------------------------------------------------ <-- SCF
 
Final energy, E             =  -7983.243284501     eV
Final free energy (E-TS)    =  -7983.340241634     eV
(energies not corrected for finite basis set)
 
NB est. 0K energy (E-0.5TS)      =  -7983.291763067     eV
 
Calculating total energy with cut-off of  280.000eV.
------------------------------------------------------------------------ <-- SCF
SCF loop      Energy           Fermi           Energy gain       Timer   <-- SCF
                               energy          per atom          (sec)   <-- SCF
------------------------------------------------------------------------ <-- SCF
Initial  -7.98324328E+003  0.00000000E+000                        12.28  <-- SCF
      1  -7.98342135E+003  1.75482385E+001   2.22577025E-002      12.57  <-- SCF
      2  -7.98342138E+003  1.75482379E+001   4.79573201E-006      12.92  <-- SCF
      3  -7.98342133E+003  1.75494871E+001  -6.57564028E-006      13.34  <-- SCF
      4  -7.98342133E+003  1.75486939E+001  -1.34251545E-007      13.70  <-- SCF
      5  -7.98342133E+003  1.75490831E+001  -8.41156936E-008      13.98  <-- SCF
      6  -7.98342133E+003  1.75489829E+001  -1.61202395E-008      14.26  <-- SCF
      7  -7.98342133E+003  1.75489757E+001   1.52938679E-010      14.53  <-- SCF
------------------------------------------------------------------------ <-- SCF
 
Final energy, E             =  -7983.324110312     eV
Final free energy (E-TS)    =  -7983.421330007     eV
(energies not corrected for finite basis set)
 
NB est. 0K energy (E-0.5TS)      =  -7983.372720159     eV
 
 For future reference: finite basis dEtot/dlog(Ecut) =      -5.603675eV
 Total energy corrected for finite basis set =   -7983.427657 eV
 
 ***************** Symmetrised Forces *****************
 *                                                    *
 *            Cartesian components (eV/A)             *
 * -------------------------------------------------- *
 *                   x            y            z      *
 *                                                    *
 * Ca        1      0.00000      0.00000      0.00000 *
 * Ca        2      0.00000      0.00000      0.00000 *
 * Ca        3      0.00000      0.00000      0.00000 *
 * Ca        4      0.00000      0.00000      0.00000 *
 * Ca        5      0.00000      0.00000      0.00000 *
 * Ca        6      0.00000      0.00000      0.00000 *
 * Ca        7      0.00000      0.00000      0.00000 *
 * Ca        8      0.00000      0.00000      0.00000 *
 *                                                    *
 ******************************************************
 
 *********** Symmetrised Stress Tensor ***********
 *                                               *
 *          Cartesian components (GPa)           *
 * --------------------------------------------- *
 *             x             y             z     *
 *                                               *
 *  x   -177.254001      0.000000      0.000000  *
 *  y      0.000000   -177.254001      0.000000  *
 *  z      0.000000      0.000000   -177.254001  *
 *                                               *
 *  Pressure:  177.2540                          *
 *                                               *
 *************************************************
 
 Pseudo atomic calculation performed for Ca 3s2 3p6 4s2
 
 Converged in 24 iterations to a total energy of -1001.5365 eV
 
Charge spilling parameter for spin component 1 = 0.24%
 
     Atomic Populations (Mulliken)
     -----------------------------
Species   Ion     s      p      d      f     Total  Charge (e)
==============================================================
  Ca       1     2.01   5.74   2.25   0.00  10.00     0.00
  Ca       2     2.01   5.74   2.25   0.00  10.00     0.00
  Ca       3     2.01   5.74   2.25   0.00  10.00     0.00
  Ca       4     2.01   5.74   2.25   0.00  10.00     0.00
  Ca       5     2.01   5.74   2.25   0.00  10.00     0.00
  Ca       6     2.01   5.74   2.25   0.00  10.00     0.00
  Ca       7     2.01   5.74   2.25   0.00  10.00     0.00
  Ca       8     2.01   5.74   2.25   0.00  10.00     0.00
==============================================================
 
            Bond              Population      Length (A)
============================================================
         Ca 7 -- Ca 8             -0.47        2.10000
         Ca 6 -- Ca 8             -0.47        2.10000
         Ca 5 -- Ca 7             -0.47        2.10000
         Ca 5 -- Ca 6             -0.47        2.10000
         Ca 4 -- Ca 8             -0.47        2.10000
         Ca 3 -- Ca 7             -0.47        2.10000
         Ca 3 -- Ca 4             -0.47        2.10000
         Ca 2 -- Ca 6             -0.47        2.10000
         Ca 2 -- Ca 4             -0.47        2.10000
         Ca 1 -- Ca 5             -0.47        2.10000
         Ca 1 -- Ca 3             -0.47        2.10000
         Ca 1 -- Ca 2             -0.47        2.10000
         Ca 6 -- Ca 7              0.30        2.96985
         Ca 5 -- Ca 8              0.30        2.96985
         Ca 4 -- Ca 7              0.30        2.96985
         Ca 4 -- Ca 6              0.30        2.96985
         Ca 3 -- Ca 8              0.30        2.96985
         Ca 3 -- Ca 5              0.30        2.96985
         Ca 2 -- Ca 8              0.30        2.96985
         Ca 2 -- Ca 5              0.30        2.96985
         Ca 2 -- Ca 3              0.30        2.96985
         Ca 1 -- Ca 7              0.30        2.96985
         Ca 1 -- Ca 6              0.30        2.96985
         Ca 1 -- Ca 4              0.30        2.96985
============================================================
 

Writing analysis data to ../0.castep_bin

Writing model to ../0.check
 
 A BibTeX formatted list of references used in this run has been written to 
 ../0.bib
 
Initialisation time =      4.86 s
Calculation time    =     11.68 s
Finalisation time   =      2.63 s
Total time          =     19.17 s
Peak Memory Use     = 437220 kB
