 +-------------------------------------------------+
 |                                                 |
 |      CCC   AA    SSS  TTTTT  EEEEE  PPPP        |
 |     C     A  A  S       T    E      P   P       |
 |     C     AAAA   SS     T    EEE    PPPP        |
 |     C     A  A     S    T    E      P           |
 |      CCC  A  A  SSS     T    EEEEE  P           |
 |                                                 |
 +-------------------------------------------------+
 |                                                 |
 | Welcome to Academic Release CASTEP version 9.0  |
 | Ab Initio Total Energy Program                  |
 |                                                 |
 | Authors:                                        |
 | M. Segall, M. Probert, C. Pickard, P. Hasnip,   |
 | S. Clark, K. Refson, J. R. Yates, M. Payne      |
 |                                                 |
 | Contributors:                                   |
 | P. Lindan, P. Haynes, J. White, V. Milman,      |
 | N. Govind, M. Gibson, P. Tulip, V. Cocula,      |
 | B. Montanari, D. Quigley, M. Glover,            |
 | L. Bernasconi, A. Perlov, M. Plummer,           |
 | E. McNellis, J. Meyer, J. Gale, D. Jochym       |
 | J. Aarons, B. Walker, R. Gillen, D. Jones       |
 | T. Green, I. J. Bush, C. J. Armstrong,          |
 | E. J. Higgins, M. D. Hodgson                    |
 |                                                 |
 | Copyright (c) 2000 - 2015                       |
 |                                                 |
 |     Distributed under the terms of an           |
 |     Agreement between the United Kingdom        |
 |     Car-Parrinello (UKCP) Consortium,           |
 |     Daresbury Laboratory and Accelrys, Inc.     |
 |                                                 |
 | Please cite                                     |
 |                                                 |
 |     "First principles methods using CASTEP"     |
 |                                                 |
 |         Zeitschrift fuer Kristallographie       |
 |           220(5-6) pp. 567-570 (2005)           |
 |                                                 |
 | S. J. Clark, M. D. Segall, C. J. Pickard,       |
 | P. J. Hasnip, M. J. Probert, K. Refson,         |
 | M. C. Payne                                     |
 |                                                 |
 |       in all publications arising from          |
 |              your use of CASTEP                 |
 |                                                 |
 +-------------------------------------------------+
 
 
 Compiled for linux_x86_64_ifort12 on Fri, 09 Oct 2015 16:14:59 +0100
 from code version 01cdeb6dcbec+  Thu, 01 Oct 2015 17:06:55 +0100
 Compiler: Intel Fortran 12.1.5.339; Optimisation: fast
 MATHLIBS: Intel MKL(11.0.5) (LAPACK version 3.4.1)
 FFT Lib : default
 Fundamental constants values: CODATA 2010
 
 Run started: Wed, 27 Apr 2016 12:36:47 +0100
 
 Atomic calculation performed for Mg: 1s2 2s2 2p6 3s2
 
 Converged in 47 iterations to an ae energy of -5427.407 eV
 
   ============================================================                
   | Pseudopotential Report - Date of generation 27-04-2016   |                
   ------------------------------------------------------------                
   | Element: Mg Ionic charge: 10.00 Level of theory: LDA     |                
   | Atomic Solver: Koelling-Harmon                           |                
   |                                                          |                
   |               Reference Electronic Structure             |                
   |         Orbital         Occupation         Energy        |                
   |            2s              2.000           -2.914        |                
   |            2p              6.000           -1.717        |                
   |            3s              2.000           -0.176        |                
   |                                                          |                
   |                 Pseudopotential Definition               |                
   |        Beta     l      e      Rc     scheme   norm       |                
   |          1      0   -2.914   1.804     qc      0         |                
   |          2      0   -0.176   1.804     qc      0         |                
   |          3      0    0.250   1.804     qc      0         |                
   |          4      1   -1.717   1.804     qc      0         |                
   |          5      1    0.250   1.804     qc      0         |                
   |          6      2    0.000   1.804     qc      0         |                
   |          7      2    0.250   1.804     qc      0         |                
   |         loc     3    0.000   1.804     pn      0         |                
   |                                                          |                
   | Augmentation charge Rinner = 1.261                       |                
   | Partial core correction Rc = 1.261                       |                
   ------------------------------------------------------------                
   | "3|1.8|7|8|9|20U:30:21:32"                               |                
   ------------------------------------------------------------                
   |      Author: Chris J. Pickard, Cambridge University      |                
   ============================================================                
 
 Atomic calculation performed for Ca: 1s2 2s2 2p6 3s2 3p6 4s2
 
 Converged in 44 iterations to an ae energy of -18468.059 eV
 
   ============================================================                
   | Pseudopotential Report - Date of generation 27-04-2016   |                
   ------------------------------------------------------------                
   | Element: Ca Ionic charge: 10.00 Level of theory: LDA     |                
   | Atomic Solver: Koelling-Harmon                           |                
   |                                                          |                
   |               Reference Electronic Structure             |                
   |         Orbital         Occupation         Energy        |                
   |            3s              2.000           -1.721        |                
   |            3p              6.000           -1.028        |                
   |            4s              2.000           -0.142        |                
   |                                                          |                
   |                 Pseudopotential Definition               |                
   |        Beta     l      e      Rc     scheme   norm       |                
   |          1      0   -1.721   2.005     qc      0         |                
   |          2      0   -0.142   2.005     qc      0         |                
   |          3      0    0.250   2.005     qc      0         |                
   |          4      1   -1.028   2.005     qc      0         |                
   |          5      1    0.250   2.005     qc      0         |                
   |          6      2    0.000   2.005     qc      0         |                
   |          7      2    0.250   2.005     qc      0         |                
   |         loc     3    0.000   2.005     pn      0         |                
   |                                                          |                
   | Augmentation charge Rinner = 1.401                       |                
   | Partial core correction Rc = 1.401                       |                
   ------------------------------------------------------------                
   | "3|2.0|7|8|9|30U:40:31:32"                               |                
   ------------------------------------------------------------                
   |      Author: Chris J. Pickard, Cambridge University      |                
   ============================================================                
 
 Pseudo atomic calculation performed for Mg 2s2 2p6 3s2
 
 Converged in 19 iterations to a total energy of -1684.3182 eV
 
 
 Pseudo atomic calculation performed for Ca 3s2 3p6 4s2
 
 Converged in 24 iterations to a total energy of -1001.5365 eV
 
 Calculation not parallelised.

 ************************************ Title ************************************
 MgO

 ***************************** General Parameters ******************************
  
 output verbosity                               : normal  (1)
 write checkpoint data to                       : ../2.check
 type of calculation                            : single point energy
 stress calculation                             : on
 density difference calculation                 : off
 electron localisation func (ELF) calculation   : off
 Hirshfeld analysis                             : off
 unlimited duration calculation
 timing information                             : on
 memory usage estimate                          : on
 write final potential to formatted file        : off
 write final density to formatted file          : off
 write BibTeX reference list                    : on
 write OTFG pseudopotential files               : on
 checkpoint writing                             : both castep_bin and check files
  
 output         length unit                     : A
 output           mass unit                     : amu
 output           time unit                     : ps
 output         charge unit                     : e
 output           spin unit                     : hbar/2
 output         energy unit                     : eV
 output          force unit                     : eV/A
 output       velocity unit                     : A/ps
 output       pressure unit                     : GPa
 output     inv_length unit                     : 1/A
 output      frequency unit                     : cm-1
 output force constant unit                     : eV/A**2
 output         volume unit                     : A**3
 output   IR intensity unit                     : (D/A)**2/amu
 output         dipole unit                     : D
 output         efield unit                     : eV/A/e
 output        entropy unit                     : J/mol/K
  
 wavefunctions paging                           : none
 random number generator seed                   : randomised (123647036)
 data distribution                              : optimal for this architecture
 optimization strategy                          : maximize speed(+++)

 *********************** Exchange-Correlation Parameters ***********************
  
 using functional                               : Local Density Approximation
 relativistic treatment                         : Koelling-Harmon
 DFT+D: Semi-empirical dispersion correction    : off

 ************************* Pseudopotential Parameters **************************
  
 pseudopotential representation                 : reciprocal space
 <beta|phi> representation                      : reciprocal space
 spin-orbit coupling                            : off

 **************************** Basis Set Parameters *****************************
  
 plane wave basis set cut-off                   :   280.0000   eV
 size of standard grid                          :     2.0000
 size of   fine   gmax                          :    17.1454   1/A
 finite basis set correction                    : automatic
 number of sample energies                      :          3
           sample  spacing                      :     5.0000   eV

 **************************** Electronic Parameters ****************************
  
 number of  electrons                           :  80.00    
 net charge of system                           :  0.000    
 treating system as non-spin-polarized
 number of bands                                :         48

 ********************* Electronic Minimization Parameters **********************
  
 Method: Treating system as metallic with density mixing treatment of electrons,
         and number of  SD  steps               :          1
         and number of  CG  steps               :          4
  
 total energy / atom convergence tol.           : 0.1000E-06   eV
 eigen-energy convergence tolerance             : 0.2000E-07   eV
 max force / atom convergence tol.              : ignored
 convergence tolerance window                   :          3   cycles
 max. number of SCF cycles                      :         60
 number of fixed-spin iterations                :         10
 smearing scheme                                : Gaussian
 smearing width                                 : 0.2000       eV
 Fermi energy convergence tolerance             : 0.2721E-13   eV
 periodic dipole correction                     : NONE

 ************************** Density Mixing Parameters **************************
  
 density-mixing scheme                          : Pulay
 max. length of mixing history                  :         30
 charge density mixing amplitude                : 0.8000    
 cut-off energy for mixing                      :  280.0       eV

 *********************** Population Analysis Parameters ************************
  
 Population analysis with cutoff                :  3.000       A

 *******************************************************************************
  
 
                           -------------------------------
                                      Unit Cell
                           -------------------------------
        Real Lattice(A)                      Reciprocal Lattice(1/A)
   4.2000000   0.0000000   0.0000000        1.4959965   0.0000000   0.0000000
   0.0000000   4.2000000   0.0000000        0.0000000   1.4959965   0.0000000
   0.0000000   0.0000000   4.2000000        0.0000000   0.0000000   1.4959965
 
                       Lattice parameters(A)       Cell Angles
                    a =    4.200000          alpha =   90.000000
                    b =    4.200000          beta  =   90.000000
                    c =    4.200000          gamma =   90.000000
 
                       Current cell volume =   74.088000       A**3
 
                           -------------------------------
                                     Cell Contents
                           -------------------------------
                         Total number of ions in cell =    8
                      Total number of species in cell =    2
                        Max number of any one species =    6
 
            xxxxxxxxxxxxxxxxxxxxxxxxxxxxxxxxxxxxxxxxxxxxxxxxxxxxxxxxxxxx
            x  Element    Atom        Fractional coordinates of atoms  x
            x            Number           u          v          w      x
            x----------------------------------------------------------x
            x  Mg           1         0.000000   0.000000   0.000000   x 
            x  Mg           2         0.500000   0.000000   0.000000   x 
            x  Ca           1         0.000000   0.500000   0.000000   x 
            x  Ca           2         0.500000   0.500000   0.000000   x 
            x  Ca           3         0.000000   0.000000   0.500000   x 
            x  Ca           4         0.500000   0.000000   0.500000   x 
            x  Ca           5         0.000000   0.500000   0.500000   x 
            x  Ca           6         0.500000   0.500000   0.500000   x 
            xxxxxxxxxxxxxxxxxxxxxxxxxxxxxxxxxxxxxxxxxxxxxxxxxxxxxxxxxxxx
 
 
                         No user defined ionic velocities
 
                           -------------------------------
                                   Details of Species
                           -------------------------------
 
                               Mass of species in AMU
                                    Mg   24.3050000
                                    Ca   40.0780000
 
                          Electric Quadrupole Moment (Barn)
                                    Mg    0.1994000 Isotope 25
                                    Ca   -0.0408000 Isotope 43
 
                          Files used for pseudopotentials:
                                    Mg 3|1.8|7|8|9|20U:30:21:32
                                    Ca 3|2.0|7|8|9|30U:40:31:32
 
                           -------------------------------
                              k-Points For BZ Sampling
                           -------------------------------
                       MP grid size for SCF calculation is  3  3  3
                            with an offset of   0.000  0.000  0.000
                       Number of kpoints used =             6
 
                           -------------------------------
                               Symmetry and Constraints
                           -------------------------------
 
                      Cell is a supercell containing 2 primitive cells
                      Maximum deviation from symmetry = 0.940008E-15     ANG
 
                      Number of symmetry operations   =          32
                      Number of ionic constraints     =           3
                      Point group of crystal =    15: D4h, 4/mmm, 4/m 2/m 2/m
                      Space group of crystal =   123: P4/mmm, -P 4 2
 
             Set iprint > 1 for details on symmetry rotations/translations
 
                         Centre of mass is constrained
             Set iprint > 1 for details of linear ionic constraints
 
                         Number of cell constraints= 5
                         Cell constraints are:  1 1 1 0 0 0
 
                         External pressure/stress (GPa)
                          0.00000   0.00000   0.00000
                                    0.00000   0.00000
                                              0.00000
  
+---------------- MEMORY AND SCRATCH DISK ESTIMATES PER PROCESS --------------+
|                                                     Memory          Disk    |
| Baseline code, static data and system overhead      146.0 MB         0.0 MB |
| BLAS internal memory storage                          0.0 MB         0.0 MB |
| Model and support data                               85.5 MB         0.0 MB |
| Electronic energy minimisation requirements          11.2 MB         0.0 MB |
| Force calculation requirements                        1.8 MB         0.0 MB |
| Stress calculation requirements                       2.1 MB         0.0 MB |
|                                               ----------------------------- |
| Approx. total storage required per process          242.7 MB         0.0 MB |
|                                                                             |
| Requirements will fluctuate during execution and may exceed these estimates |
+-----------------------------------------------------------------------------+
Calculating finite basis set correction with  3 cut-off energies.
Calculating total energy with cut-off of  270.000eV.
------------------------------------------------------------------------ <-- SCF
SCF loop      Energy           Fermi           Energy gain       Timer   <-- SCF
                               energy          per atom          (sec)   <-- SCF
------------------------------------------------------------------------ <-- SCF
Initial  -7.52060450E+003  0.00000000E+000                         9.52  <-- SCF
      1  -9.18242457E+003  1.63701288E+001   2.07727508E+002      10.23  <-- SCF
      2  -9.35134610E+003  1.50352716E+001   2.11151916E+001      10.83  <-- SCF
      3  -9.35568922E+003  1.52402592E+001   5.42889401E-001      11.46  <-- SCF
      4  -9.35441624E+003  1.56001604E+001  -1.59122098E-001      12.12  <-- SCF
      5  -9.35227587E+003  1.55738965E+001  -2.67546845E-001      12.78  <-- SCF
      6  -9.35226346E+003  1.55514101E+001  -1.55046807E-003      13.45  <-- SCF
      7  -9.35226257E+003  1.55588660E+001  -1.11604543E-004      14.13  <-- SCF
      8  -9.35226242E+003  1.55580216E+001  -1.86563201E-005      14.79  <-- SCF
      9  -9.35226241E+003  1.55580138E+001  -1.85069975E-006      15.42  <-- SCF
     10  -9.35226240E+003  1.55580781E+001  -3.10468226E-007      15.94  <-- SCF
     11  -9.35226240E+003  1.55580546E+001   1.94102579E-009      16.38  <-- SCF
     12  -9.35226240E+003  1.55580649E+001   6.07694399E-010      16.82  <-- SCF
------------------------------------------------------------------------ <-- SCF
 
Final energy, E             =  -9352.125911556     eV
Final free energy (E-TS)    =  -9352.262403191     eV
(energies not corrected for finite basis set)
 
NB est. 0K energy (E-0.5TS)      =  -9352.194157374     eV
 
Calculating total energy with cut-off of  275.000eV.
------------------------------------------------------------------------ <-- SCF
SCF loop      Energy           Fermi           Energy gain       Timer   <-- SCF
                               energy          per atom          (sec)   <-- SCF
------------------------------------------------------------------------ <-- SCF
Initial  -9.35212591E+003  0.00000000E+000                        17.01  <-- SCF
      1  -9.35243454E+003  1.55559249E+001   3.85782001E-002      17.56  <-- SCF
      2  -9.35243468E+003  1.55559245E+001   1.82250851E-005      18.24  <-- SCF
      3  -9.35243450E+003  1.55589665E+001  -2.24677003E-005      18.85  <-- SCF
      4  -9.35243456E+003  1.55561151E+001   7.06096035E-006      19.51  <-- SCF
      5  -9.35243482E+003  1.55599050E+001   3.20700504E-005      20.14  <-- SCF
      6  -9.35243451E+003  1.55583660E+001  -3.87351772E-005      20.76  <-- SCF
      7  -9.35243449E+003  1.55577454E+001  -1.48392978E-006      21.34  <-- SCF
      8  -9.35243449E+003  1.55578541E+001  -1.24992084E-008      21.79  <-- SCF
      9  -9.35243449E+003  1.55578499E+001   7.85381689E-010      22.20  <-- SCF
------------------------------------------------------------------------ <-- SCF
 
Final energy, E             =  -9352.297624372     eV
Final free energy (E-TS)    =  -9352.434494413     eV
(energies not corrected for finite basis set)
 
NB est. 0K energy (E-0.5TS)      =  -9352.366059392     eV
 
Calculating total energy with cut-off of  280.000eV.
------------------------------------------------------------------------ <-- SCF
SCF loop      Energy           Fermi           Energy gain       Timer   <-- SCF
                               energy          per atom          (sec)   <-- SCF
------------------------------------------------------------------------ <-- SCF
Initial  -9.35229762E+003  0.00000000E+000                        22.39  <-- SCF
      1  -9.35253831E+003  1.55558360E+001   3.00853355E-002      22.91  <-- SCF
      2  -9.35253838E+003  1.55558362E+001   9.28497335E-006      23.53  <-- SCF
      3  -9.35253831E+003  1.55572660E+001  -8.66898314E-006      24.17  <-- SCF
      4  -9.35253832E+003  1.55560966E+001   1.30987300E-006      24.83  <-- SCF
      5  -9.35253840E+003  1.55572967E+001   9.60545742E-006      25.48  <-- SCF
      6  -9.35253832E+003  1.55571472E+001  -1.02281319E-005      26.13  <-- SCF
      7  -9.35253831E+003  1.55565948E+001  -9.23572323E-007      26.71  <-- SCF
      8  -9.35253831E+003  1.55567622E+001  -1.81453719E-008      27.12  <-- SCF
      9  -9.35253831E+003  1.55567451E+001   7.38591347E-011      27.53  <-- SCF
------------------------------------------------------------------------ <-- SCF
 
Final energy, E             =  -9352.401211924     eV
Final free energy (E-TS)    =  -9352.538309948     eV
(energies not corrected for finite basis set)
 
NB est. 0K energy (E-0.5TS)      =  -9352.469760936     eV
 
 For future reference: finite basis dEtot/dlog(Ecut) =      -6.900552eV
 Total energy corrected for finite basis set =   -9352.546102 eV
 
 ***************** Symmetrised Forces *****************
 *                                                    *
 *            Cartesian components (eV/A)             *
 * -------------------------------------------------- *
 *                   x            y            z      *
 *                                                    *
 * Mg        1      0.00000      0.00000      0.00000 *
 * Mg        2      0.00000      0.00000      0.00000 *
 * Ca        1      0.00000      0.00000      0.00000 *
 * Ca        2      0.00000      0.00000      0.00000 *
 * Ca        3      0.00000      0.00000      0.00000 *
 * Ca        4      0.00000      0.00000      0.00000 *
 * Ca        5      0.00000      0.00000      0.00000 *
 * Ca        6      0.00000      0.00000      0.00000 *
 *                                                    *
 ******************************************************
 
 *********** Symmetrised Stress Tensor ***********
 *                                               *
 *          Cartesian components (GPa)           *
 * --------------------------------------------- *
 *             x             y             z     *
 *                                               *
 *  x   -174.290436      0.000000      0.000000  *
 *  y      0.000000   -197.734015      0.000000  *
 *  z      0.000000      0.000000   -197.734015  *
 *                                               *
 *  Pressure:  189.9195                          *
 *                                               *
 *************************************************
 
 Pseudo atomic calculation performed for Mg 2s2 2p6 3s2
 
 Converged in 19 iterations to a total energy of -1684.3182 eV
 
 
 Pseudo atomic calculation performed for Ca 3s2 3p6 4s2
 
 Converged in 24 iterations to a total energy of -1001.5365 eV
 
Charge spilling parameter for spin component 1 = 0.31%
 
     Atomic Populations (Mulliken)
     -----------------------------
Species   Ion     s      p      d      f     Total  Charge (e)
==============================================================
  Mg       1     2.43   8.17   0.00   0.00  10.61    -0.61
  Mg       2     2.43   8.17   0.00   0.00  10.61    -0.61
  Ca       1     1.58   5.76   2.35   0.00   9.69     0.31
  Ca       2     1.58   5.76   2.35   0.00   9.69     0.31
  Ca       3     1.58   5.76   2.35   0.00   9.69     0.31
  Ca       4     1.58   5.76   2.35   0.00   9.69     0.31
  Ca       5     2.03   5.74   2.24   0.00  10.01    -0.01
  Ca       6     2.03   5.74   2.24   0.00  10.01    -0.01
==============================================================
 
            Bond              Population      Length (A)
============================================================
         Ca 5 -- Ca 6             -1.84        2.10000
         Ca 4 -- Ca 6             -1.77        2.10000
         Ca 3 -- Ca 5             -1.77        2.10000
         Ca 3 -- Ca 4             -1.02        2.10000
         Ca 2 -- Ca 6             -1.77        2.10000
         Ca 1 -- Ca 5             -1.77        2.10000
         Ca 1 -- Ca 2             -1.02        2.10000
         Mg 2 -- Ca 4             -1.73        2.10000
         Mg 2 -- Ca 2             -1.73        2.10000
         Mg 1 -- Ca 3             -1.73        2.10000
         Mg 1 -- Ca 1             -1.73        2.10000
         Mg 1 -- Mg 2              2.96        2.10000
         Ca 4 -- Ca 5              0.96        2.96985
         Ca 3 -- Ca 6              0.96        2.96985
         Ca 2 -- Ca 5              0.96        2.96985
         Ca 2 -- Ca 4             -0.50        2.96985
         Ca 1 -- Ca 6              0.96        2.96985
         Ca 1 -- Ca 3             -0.50        2.96985
         Mg 2 -- Ca 6             -0.10        2.96985
         Mg 2 -- Ca 3             -2.37        2.96985
         Mg 2 -- Ca 1             -2.37        2.96985
         Mg 1 -- Ca 5             -0.10        2.96985
         Mg 1 -- Ca 4             -2.37        2.96985
         Mg 1 -- Ca 2             -2.37        2.96985
============================================================
 

Writing analysis data to ../2.castep_bin

Writing model to ../2.check
 
 A BibTeX formatted list of references used in this run has been written to 
 ../2.bib
 
Initialisation time =      8.30 s
Calculation time    =     21.56 s
Finalisation time   =      0.48 s
Total time          =     30.34 s
Peak Memory Use     = 520952 kB
