 +-------------------------------------------------+
 |                                                 |
 |      CCC   AA    SSS  TTTTT  EEEEE  PPPP        |
 |     C     A  A  S       T    E      P   P       |
 |     C     AAAA   SS     T    EEE    PPPP        |
 |     C     A  A     S    T    E      P           |
 |      CCC  A  A  SSS     T    EEEEE  P           |
 |                                                 |
 +-------------------------------------------------+
 |                                                 |
 | Welcome to Academic Release CASTEP version 9.0  |
 | Ab Initio Total Energy Program                  |
 |                                                 |
 | Authors:                                        |
 | M. Segall, M. Probert, C. Pickard, P. Hasnip,   |
 | S. Clark, K. Refson, J. R. Yates, M. Payne      |
 |                                                 |
 | Contributors:                                   |
 | P. Lindan, P. Haynes, J. White, V. Milman,      |
 | N. Govind, M. Gibson, P. Tulip, V. Cocula,      |
 | B. Montanari, D. Quigley, M. Glover,            |
 | L. Bernasconi, A. Perlov, M. Plummer,           |
 | E. McNellis, J. Meyer, J. Gale, D. Jochym       |
 | J. Aarons, B. Walker, R. Gillen, D. Jones       |
 | T. Green, I. J. Bush, C. J. Armstrong,          |
 | E. J. Higgins, M. D. Hodgson                    |
 |                                                 |
 | Copyright (c) 2000 - 2015                       |
 |                                                 |
 |     Distributed under the terms of an           |
 |     Agreement between the United Kingdom        |
 |     Car-Parrinello (UKCP) Consortium,           |
 |     Daresbury Laboratory and Accelrys, Inc.     |
 |                                                 |
 | Please cite                                     |
 |                                                 |
 |     "First principles methods using CASTEP"     |
 |                                                 |
 |         Zeitschrift fuer Kristallographie       |
 |           220(5-6) pp. 567-570 (2005)           |
 |                                                 |
 | S. J. Clark, M. D. Segall, C. J. Pickard,       |
 | P. J. Hasnip, M. J. Probert, K. Refson,         |
 | M. C. Payne                                     |
 |                                                 |
 |       in all publications arising from          |
 |              your use of CASTEP                 |
 |                                                 |
 +-------------------------------------------------+
 
 
 Compiled for linux_x86_64_ifort12 on Fri, 09 Oct 2015 16:14:59 +0100
 from code version 01cdeb6dcbec+  Thu, 01 Oct 2015 17:06:55 +0100
 Compiler: Intel Fortran 12.1.5.339; Optimisation: fast
 MATHLIBS: Intel MKL(11.0.5) (LAPACK version 3.4.1)
 FFT Lib : default
 Fundamental constants values: CODATA 2010
 
 Run started: Wed, 27 Apr 2016 12:38:48 +0100
 
 Atomic calculation performed for Mg: 1s2 2s2 2p6 3s2
 
 Converged in 47 iterations to an ae energy of -5427.407 eV
 
   ============================================================                
   | Pseudopotential Report - Date of generation 27-04-2016   |                
   ------------------------------------------------------------                
   | Element: Mg Ionic charge: 10.00 Level of theory: LDA     |                
   | Atomic Solver: Koelling-Harmon                           |                
   |                                                          |                
   |               Reference Electronic Structure             |                
   |         Orbital         Occupation         Energy        |                
   |            2s              2.000           -2.914        |                
   |            2p              6.000           -1.717        |                
   |            3s              2.000           -0.176        |                
   |                                                          |                
   |                 Pseudopotential Definition               |                
   |        Beta     l      e      Rc     scheme   norm       |                
   |          1      0   -2.914   1.804     qc      0         |                
   |          2      0   -0.176   1.804     qc      0         |                
   |          3      0    0.250   1.804     qc      0         |                
   |          4      1   -1.717   1.804     qc      0         |                
   |          5      1    0.250   1.804     qc      0         |                
   |          6      2    0.000   1.804     qc      0         |                
   |          7      2    0.250   1.804     qc      0         |                
   |         loc     3    0.000   1.804     pn      0         |                
   |                                                          |                
   | Augmentation charge Rinner = 1.261                       |                
   | Partial core correction Rc = 1.261                       |                
   ------------------------------------------------------------                
   | "3|1.8|7|8|9|20U:30:21:32"                               |                
   ------------------------------------------------------------                
   |      Author: Chris J. Pickard, Cambridge University      |                
   ============================================================                
 
 Atomic calculation performed for Ca: 1s2 2s2 2p6 3s2 3p6 4s2
 
 Converged in 44 iterations to an ae energy of -18468.059 eV
 
   ============================================================                
   | Pseudopotential Report - Date of generation 27-04-2016   |                
   ------------------------------------------------------------                
   | Element: Ca Ionic charge: 10.00 Level of theory: LDA     |                
   | Atomic Solver: Koelling-Harmon                           |                
   |                                                          |                
   |               Reference Electronic Structure             |                
   |         Orbital         Occupation         Energy        |                
   |            3s              2.000           -1.721        |                
   |            3p              6.000           -1.028        |                
   |            4s              2.000           -0.142        |                
   |                                                          |                
   |                 Pseudopotential Definition               |                
   |        Beta     l      e      Rc     scheme   norm       |                
   |          1      0   -1.721   2.005     qc      0         |                
   |          2      0   -0.142   2.005     qc      0         |                
   |          3      0    0.250   2.005     qc      0         |                
   |          4      1   -1.028   2.005     qc      0         |                
   |          5      1    0.250   2.005     qc      0         |                
   |          6      2    0.000   2.005     qc      0         |                
   |          7      2    0.250   2.005     qc      0         |                
   |         loc     3    0.000   2.005     pn      0         |                
   |                                                          |                
   | Augmentation charge Rinner = 1.401                       |                
   | Partial core correction Rc = 1.401                       |                
   ------------------------------------------------------------                
   | "3|2.0|7|8|9|30U:40:31:32"                               |                
   ------------------------------------------------------------                
   |      Author: Chris J. Pickard, Cambridge University      |                
   ============================================================                
 
 Pseudo atomic calculation performed for Mg 2s2 2p6 3s2
 
 Converged in 19 iterations to a total energy of -1684.3182 eV
 
 
 Pseudo atomic calculation performed for Ca 3s2 3p6 4s2
 
 Converged in 24 iterations to a total energy of -1001.5365 eV
 
 Calculation not parallelised.

 ************************************ Title ************************************
 MgO

 ***************************** General Parameters ******************************
  
 output verbosity                               : normal  (1)
 write checkpoint data to                       : ../6.check
 type of calculation                            : single point energy
 stress calculation                             : on
 density difference calculation                 : off
 electron localisation func (ELF) calculation   : off
 Hirshfeld analysis                             : off
 unlimited duration calculation
 timing information                             : on
 memory usage estimate                          : on
 write final potential to formatted file        : off
 write final density to formatted file          : off
 write BibTeX reference list                    : on
 write OTFG pseudopotential files               : on
 checkpoint writing                             : both castep_bin and check files
  
 output         length unit                     : A
 output           mass unit                     : amu
 output           time unit                     : ps
 output         charge unit                     : e
 output           spin unit                     : hbar/2
 output         energy unit                     : eV
 output          force unit                     : eV/A
 output       velocity unit                     : A/ps
 output       pressure unit                     : GPa
 output     inv_length unit                     : 1/A
 output      frequency unit                     : cm-1
 output force constant unit                     : eV/A**2
 output         volume unit                     : A**3
 output   IR intensity unit                     : (D/A)**2/amu
 output         dipole unit                     : D
 output         efield unit                     : eV/A/e
 output        entropy unit                     : J/mol/K
  
 wavefunctions paging                           : none
 random number generator seed                   : randomised (123849028)
 data distribution                              : optimal for this architecture
 optimization strategy                          : maximize speed(+++)

 *********************** Exchange-Correlation Parameters ***********************
  
 using functional                               : Local Density Approximation
 relativistic treatment                         : Koelling-Harmon
 DFT+D: Semi-empirical dispersion correction    : off

 ************************* Pseudopotential Parameters **************************
  
 pseudopotential representation                 : reciprocal space
 <beta|phi> representation                      : reciprocal space
 spin-orbit coupling                            : off

 **************************** Basis Set Parameters *****************************
  
 plane wave basis set cut-off                   :   280.0000   eV
 size of standard grid                          :     2.0000
 size of   fine   gmax                          :    17.1454   1/A
 finite basis set correction                    : automatic
 number of sample energies                      :          3
           sample  spacing                      :     5.0000   eV

 **************************** Electronic Parameters ****************************
  
 number of  electrons                           :  80.00    
 net charge of system                           :  0.000    
 treating system as non-spin-polarized
 number of bands                                :         48

 ********************* Electronic Minimization Parameters **********************
  
 Method: Treating system as metallic with density mixing treatment of electrons,
         and number of  SD  steps               :          1
         and number of  CG  steps               :          4
  
 total energy / atom convergence tol.           : 0.1000E-06   eV
 eigen-energy convergence tolerance             : 0.2000E-07   eV
 max force / atom convergence tol.              : ignored
 convergence tolerance window                   :          3   cycles
 max. number of SCF cycles                      :         60
 number of fixed-spin iterations                :         10
 smearing scheme                                : Gaussian
 smearing width                                 : 0.2000       eV
 Fermi energy convergence tolerance             : 0.2721E-13   eV
 periodic dipole correction                     : NONE

 ************************** Density Mixing Parameters **************************
  
 density-mixing scheme                          : Pulay
 max. length of mixing history                  :         30
 charge density mixing amplitude                : 0.8000    
 cut-off energy for mixing                      :  280.0       eV

 *********************** Population Analysis Parameters ************************
  
 Population analysis with cutoff                :  3.000       A

 *******************************************************************************
  
 
                           -------------------------------
                                      Unit Cell
                           -------------------------------
        Real Lattice(A)                      Reciprocal Lattice(1/A)
   4.2000000   0.0000000   0.0000000        1.4959965   0.0000000   0.0000000
   0.0000000   4.2000000   0.0000000        0.0000000   1.4959965   0.0000000
   0.0000000   0.0000000   4.2000000        0.0000000   0.0000000   1.4959965
 
                       Lattice parameters(A)       Cell Angles
                    a =    4.200000          alpha =   90.000000
                    b =    4.200000          beta  =   90.000000
                    c =    4.200000          gamma =   90.000000
 
                       Current cell volume =   74.088000       A**3
 
                           -------------------------------
                                     Cell Contents
                           -------------------------------
                         Total number of ions in cell =    8
                      Total number of species in cell =    2
                        Max number of any one species =    6
 
            xxxxxxxxxxxxxxxxxxxxxxxxxxxxxxxxxxxxxxxxxxxxxxxxxxxxxxxxxxxx
            x  Element    Atom        Fractional coordinates of atoms  x
            x            Number           u          v          w      x
            x----------------------------------------------------------x
            x  Mg           1         0.500000   0.000000   0.000000   x 
            x  Mg           2         0.000000   0.500000   0.000000   x 
            x  Mg           3         0.000000   0.000000   0.500000   x 
            x  Mg           4         0.500000   0.000000   0.500000   x 
            x  Mg           5         0.000000   0.500000   0.500000   x 
            x  Mg           6         0.500000   0.500000   0.500000   x 
            x  Ca           1         0.000000   0.000000   0.000000   x 
            x  Ca           2         0.500000   0.500000   0.000000   x 
            xxxxxxxxxxxxxxxxxxxxxxxxxxxxxxxxxxxxxxxxxxxxxxxxxxxxxxxxxxxx
 
 
                         No user defined ionic velocities
 
                           -------------------------------
                                   Details of Species
                           -------------------------------
 
                               Mass of species in AMU
                                    Mg   24.3050000
                                    Ca   40.0780000
 
                          Electric Quadrupole Moment (Barn)
                                    Mg    0.1994000 Isotope 25
                                    Ca   -0.0408000 Isotope 43
 
                          Files used for pseudopotentials:
                                    Mg 3|1.8|7|8|9|20U:30:21:32
                                    Ca 3|2.0|7|8|9|30U:40:31:32
 
                           -------------------------------
                              k-Points For BZ Sampling
                           -------------------------------
                       MP grid size for SCF calculation is  3  3  3
                            with an offset of   0.000  0.000  0.000
                       Number of kpoints used =             6
 
                           -------------------------------
                               Symmetry and Constraints
                           -------------------------------
 
                      Cell is a supercell containing 2 primitive cells
                      Maximum deviation from symmetry = 0.940008E-15     ANG
 
                      Number of symmetry operations   =          32
                      Number of ionic constraints     =           3
                      Point group of crystal =    15: D4h, 4/mmm, 4/m 2/m 2/m
                      Space group of crystal =   123: P4/mmm, -P 4 2
 
             Set iprint > 1 for details on symmetry rotations/translations
 
                         Centre of mass is constrained
             Set iprint > 1 for details of linear ionic constraints
 
                         Number of cell constraints= 5
                         Cell constraints are:  1 1 1 0 0 0
 
                         External pressure/stress (GPa)
                          0.00000   0.00000   0.00000
                                    0.00000   0.00000
                                              0.00000
  
+---------------- MEMORY AND SCRATCH DISK ESTIMATES PER PROCESS --------------+
|                                                     Memory          Disk    |
| Baseline code, static data and system overhead      146.0 MB         0.0 MB |
| BLAS internal memory storage                          0.0 MB         0.0 MB |
| Model and support data                               85.5 MB         0.0 MB |
| Electronic energy minimisation requirements          11.2 MB         0.0 MB |
| Force calculation requirements                        1.8 MB         0.0 MB |
| Stress calculation requirements                       2.1 MB         0.0 MB |
|                                               ----------------------------- |
| Approx. total storage required per process          242.7 MB         0.0 MB |
|                                                                             |
| Requirements will fluctuate during execution and may exceed these estimates |
+-----------------------------------------------------------------------------+
Calculating finite basis set correction with  3 cut-off energies.
Calculating total energy with cut-off of  270.000eV.
------------------------------------------------------------------------ <-- SCF
SCF loop      Energy           Fermi           Energy gain       Timer   <-- SCF
                               energy          per atom          (sec)   <-- SCF
------------------------------------------------------------------------ <-- SCF
Initial  -9.76028368E+003  0.00000000E+000                         9.44  <-- SCF
      1  -1.19274349E+004  1.25292741E+001   2.70893898E+002      10.10  <-- SCF
      2  -1.20877657E+004  1.13721103E+001   2.00413545E+001      10.62  <-- SCF
      3  -1.20910558E+004  1.14477616E+001   4.11262318E-001      11.16  <-- SCF
      4  -1.20890550E+004  1.23043953E+001  -2.50100496E-001      11.76  <-- SCF
      5  -1.20883826E+004  1.21026080E+001  -8.40504782E-002      12.39  <-- SCF
      6  -1.20883730E+004  1.21311368E+001  -1.19576993E-003      13.04  <-- SCF
      7  -1.20883728E+004  1.21292622E+001  -2.59080693E-005      13.68  <-- SCF
      8  -1.20883728E+004  1.21288642E+001  -1.69145539E-007      14.23  <-- SCF
      9  -1.20883728E+004  1.21287581E+001   2.07327618E-009      14.64  <-- SCF
     10  -1.20883728E+004  1.21287776E+001   2.10363190E-009      15.05  <-- SCF
     11  -1.20883728E+004  1.21287845E+001   7.99302782E-010      15.44  <-- SCF
------------------------------------------------------------------------ <-- SCF
 
Final energy, E             =  -12088.33654175     eV
Final free energy (E-TS)    =  -12088.37280808     eV
(energies not corrected for finite basis set)
 
NB est. 0K energy (E-0.5TS)      =  -12088.35467491     eV
 
Calculating total energy with cut-off of  275.000eV.
------------------------------------------------------------------------ <-- SCF
SCF loop      Energy           Fermi           Energy gain       Timer   <-- SCF
                               energy          per atom          (sec)   <-- SCF
------------------------------------------------------------------------ <-- SCF
Initial  -1.20883365E+004  0.00000000E+000                        15.64  <-- SCF
      1  -1.20886141E+004  1.21268939E+001   3.46962747E-002      16.19  <-- SCF
      2  -1.20886144E+004  1.21268936E+001   4.11422428E-005      16.87  <-- SCF
      3  -1.20886142E+004  1.21295525E+001  -3.57617525E-005      17.48  <-- SCF
      4  -1.20886142E+004  1.21271475E+001   1.19878635E-006      18.10  <-- SCF
      5  -1.20886142E+004  1.21292785E+001  -7.33644525E-007      18.63  <-- SCF
      6  -1.20886142E+004  1.21282806E+001  -4.40345841E-007      19.17  <-- SCF
      7  -1.20886142E+004  1.21284739E+001  -2.97586574E-008      19.56  <-- SCF
      8  -1.20886142E+004  1.21284841E+001   7.80354627E-010      19.96  <-- SCF
------------------------------------------------------------------------ <-- SCF
 
Final energy, E             =  -12088.57801310     eV
Final free energy (E-TS)    =  -12088.61415495     eV
(energies not corrected for finite basis set)
 
NB est. 0K energy (E-0.5TS)      =  -12088.59608403     eV
 
Calculating total energy with cut-off of  280.000eV.
------------------------------------------------------------------------ <-- SCF
SCF loop      Energy           Fermi           Energy gain       Timer   <-- SCF
                               energy          per atom          (sec)   <-- SCF
------------------------------------------------------------------------ <-- SCF
Initial  -1.20885780E+004  0.00000000E+000                        20.15  <-- SCF
      1  -1.20887562E+004  1.21270502E+001   2.22723554E-002      20.65  <-- SCF
      2  -1.20887564E+004  1.21270502E+001   2.06535017E-005      21.24  <-- SCF
      3  -1.20887562E+004  1.21287069E+001  -1.40807993E-005      21.86  <-- SCF
      4  -1.20887562E+004  1.21271427E+001   5.09727024E-007      22.45  <-- SCF
      5  -1.20887562E+004  1.21287220E+001  -1.59280704E-007      22.98  <-- SCF
      6  -1.20887562E+004  1.21278517E+001  -3.35911538E-007      23.49  <-- SCF
      7  -1.20887562E+004  1.21280141E+001  -2.02089807E-008      23.89  <-- SCF
      8  -1.20887562E+004  1.21280203E+001   5.76565287E-010      24.28  <-- SCF
------------------------------------------------------------------------ <-- SCF
 
Final energy, E             =  -12088.72016115     eV
Final free energy (E-TS)    =  -12088.75624448     eV
(energies not corrected for finite basis set)
 
NB est. 0K energy (E-0.5TS)      =  -12088.73820282     eV
 
 For future reference: finite basis dEtot/dlog(Ecut) =      -9.595782eV
 Total energy corrected for finite basis set =  -12088.767079 eV
 
 ***************** Symmetrised Forces *****************
 *                                                    *
 *            Cartesian components (eV/A)             *
 * -------------------------------------------------- *
 *                   x            y            z      *
 *                                                    *
 * Mg        1      0.00000      0.00000      0.00000 *
 * Mg        2      0.00000      0.00000      0.00000 *
 * Mg        3      0.00000      0.00000      0.00000 *
 * Mg        4      0.00000      0.00000      0.00000 *
 * Mg        5      0.00000      0.00000      0.00000 *
 * Mg        6      0.00000      0.00000      0.00000 *
 * Ca        1      0.00000      0.00000      0.00000 *
 * Ca        2      0.00000      0.00000      0.00000 *
 *                                                    *
 ******************************************************
 
 *********** Symmetrised Stress Tensor ***********
 *                                               *
 *          Cartesian components (GPa)           *
 * --------------------------------------------- *
 *             x             y             z     *
 *                                               *
 *  x   -185.708718      0.000000      0.000000  *
 *  y      0.000000   -185.708718      0.000000  *
 *  z      0.000000      0.000000   -192.245336  *
 *                                               *
 *  Pressure:  187.8876                          *
 *                                               *
 *************************************************
 
 Pseudo atomic calculation performed for Mg 2s2 2p6 3s2
 
 Converged in 19 iterations to a total energy of -1684.3182 eV
 
 
 Pseudo atomic calculation performed for Ca 3s2 3p6 4s2
 
 Converged in 24 iterations to a total energy of -1001.5365 eV
 
Charge spilling parameter for spin component 1 = 0.52%
 
     Atomic Populations (Mulliken)
     -----------------------------
Species   Ion     s      p      d      f     Total  Charge (e)
==============================================================
  Mg       1     2.44   7.70   0.00   0.00  10.14    -0.14
  Mg       2     2.44   7.70   0.00   0.00  10.14    -0.14
  Mg       3     2.20   7.71   0.00   0.00   9.91     0.09
  Mg       4     2.46   9.19   0.00   0.00  11.64    -1.64
  Mg       5     2.46   9.19   0.00   0.00  11.64    -1.64
  Mg       6     2.20   7.71   0.00   0.00   9.91     0.09
  Ca       1    -0.15   5.74   2.72   0.00   8.31     1.69
  Ca       2    -0.15   5.74   2.72   0.00   8.31     1.69
==============================================================
 
            Bond              Population      Length (A)
============================================================
         Mg 6 -- Ca 2            -20.80        2.10000
         Mg 5 -- Mg 6             -3.05        2.10000
         Mg 4 -- Mg 6             -3.05        2.10000
         Mg 3 -- Ca 1            -20.80        2.10000
         Mg 3 -- Mg 5             -3.05        2.10000
         Mg 3 -- Mg 4             -3.05        2.10000
         Mg 2 -- Ca 2            -13.91        2.10000
         Mg 2 -- Ca 1            -13.91        2.10000
         Mg 2 -- Mg 5             -2.82        2.10000
         Mg 1 -- Ca 2            -13.91        2.10000
         Mg 1 -- Ca 1            -13.91        2.10000
         Mg 1 -- Mg 4             -2.82        2.10000
         Ca 1 -- Ca 2            -11.40        2.96985
         Mg 5 -- Ca 2             -0.23        2.96985
         Mg 5 -- Ca 1             -0.23        2.96985
         Mg 4 -- Ca 2             -0.23        2.96985
         Mg 4 -- Ca 1             -0.23        2.96985
         Mg 4 -- Mg 5              3.19        2.96985
         Mg 3 -- Mg 6             -2.02        2.96985
         Mg 2 -- Mg 6              5.14        2.96985
         Mg 2 -- Mg 3              5.14        2.96985
         Mg 1 -- Mg 6              5.14        2.96985
         Mg 1 -- Mg 3              5.14        2.96985
         Mg 1 -- Mg 2              8.08        2.96985
============================================================
 

Writing analysis data to ../6.castep_bin

Writing model to ../6.check
 
 A BibTeX formatted list of references used in this run has been written to 
 ../6.bib
 
Initialisation time =      8.22 s
Calculation time    =     18.40 s
Finalisation time   =      0.47 s
Total time          =     27.09 s
Peak Memory Use     = 520948 kB
