 +-------------------------------------------------+
 |                                                 |
 |      CCC   AA    SSS  TTTTT  EEEEE  PPPP        |
 |     C     A  A  S       T    E      P   P       |
 |     C     AAAA   SS     T    EEE    PPPP        |
 |     C     A  A     S    T    E      P           |
 |      CCC  A  A  SSS     T    EEEEE  P           |
 |                                                 |
 +-------------------------------------------------+
 |                                                 |
 | Welcome to Academic Release CASTEP version 9.0  |
 | Ab Initio Total Energy Program                  |
 |                                                 |
 | Authors:                                        |
 | M. Segall, M. Probert, C. Pickard, P. Hasnip,   |
 | S. Clark, K. Refson, J. R. Yates, M. Payne      |
 |                                                 |
 | Contributors:                                   |
 | P. Lindan, P. Haynes, J. White, V. Milman,      |
 | N. Govind, M. Gibson, P. Tulip, V. Cocula,      |
 | B. Montanari, D. Quigley, M. Glover,            |
 | L. Bernasconi, A. Perlov, M. Plummer,           |
 | E. McNellis, J. Meyer, J. Gale, D. Jochym       |
 | J. Aarons, B. Walker, R. Gillen, D. Jones       |
 | T. Green, I. J. Bush, C. J. Armstrong,          |
 | E. J. Higgins, M. D. Hodgson                    |
 |                                                 |
 | Copyright (c) 2000 - 2015                       |
 |                                                 |
 |     Distributed under the terms of an           |
 |     Agreement between the United Kingdom        |
 |     Car-Parrinello (UKCP) Consortium,           |
 |     Daresbury Laboratory and Accelrys, Inc.     |
 |                                                 |
 | Please cite                                     |
 |                                                 |
 |     "First principles methods using CASTEP"     |
 |                                                 |
 |         Zeitschrift fuer Kristallographie       |
 |           220(5-6) pp. 567-570 (2005)           |
 |                                                 |
 | S. J. Clark, M. D. Segall, C. J. Pickard,       |
 | P. J. Hasnip, M. J. Probert, K. Refson,         |
 | M. C. Payne                                     |
 |                                                 |
 |       in all publications arising from          |
 |              your use of CASTEP                 |
 |                                                 |
 +-------------------------------------------------+
 
 
 Compiled for linux_x86_64_ifort12 on Fri, 09 Oct 2015 16:14:59 +0100
 from code version 01cdeb6dcbec+  Thu, 01 Oct 2015 17:06:55 +0100
 Compiler: Intel Fortran 12.1.5.339; Optimisation: fast
 MATHLIBS: Intel MKL(11.0.5) (LAPACK version 3.4.1)
 FFT Lib : default
 Fundamental constants values: CODATA 2010
 
 Run started: Wed, 20 Apr 2016 14:25:31 +0100
 Warning: parameters_read - missing parameters file, using defaults
 
 Atomic calculation performed for O: 1s2 2s2 2p4
 
 Converged in 60 iterations to an ae energy of -2027.926 eV
 
   ============================================================                
   | Pseudopotential Report - Date of generation 20-04-2016   |                
   ------------------------------------------------------------                
   | Element: O Ionic charge:  6.00 Level of theory: LDA      |                
   | Atomic Solver: Koelling-Harmon                           |                
   |                                                          |                
   |               Reference Electronic Structure             |                
   |         Orbital         Occupation         Energy        |                
   |            2s              2.000           -0.873        |                
   |            2p              4.000           -0.338        |                
   |                                                          |                
   |                 Pseudopotential Definition               |                
   |        Beta     l      e      Rc     scheme   norm       |                
   |          1      0   -0.873   1.100     qc      0         |                
   |          2      0    0.250   1.100     qc      0         |                
   |          3      1   -0.338   1.100     qc      0         |                
   |          4      1    0.250   1.100     qc      0         |                
   |         loc     2    0.000   1.100     pn      0         |                
   |                                                          |                
   | Augmentation charge Rinner = 0.769                       |                
   | Partial core correction Rc = 0.769                       |                
   ------------------------------------------------------------                
   | "2|1.1|15|18|20|20:21(qc=7)"                             |                
   ------------------------------------------------------------                
   |      Author: Chris J. Pickard, Cambridge University      |                
   ============================================================                
 
 Atomic calculation performed for Ca: 1s2 2s2 2p6 3s2 3p6 4s2
 
 Converged in 44 iterations to an ae energy of -18468.059 eV
 
   ============================================================                
   | Pseudopotential Report - Date of generation 20-04-2016   |                
   ------------------------------------------------------------                
   | Element: Ca Ionic charge: 10.00 Level of theory: LDA     |                
   | Atomic Solver: Koelling-Harmon                           |                
   |                                                          |                
   |               Reference Electronic Structure             |                
   |         Orbital         Occupation         Energy        |                
   |            3s              2.000           -1.721        |                
   |            3p              6.000           -1.028        |                
   |            4s              2.000           -0.142        |                
   |                                                          |                
   |                 Pseudopotential Definition               |                
   |        Beta     l      e      Rc     scheme   norm       |                
   |          1      0   -1.721   2.005     qc      0         |                
   |          2      0   -0.142   2.005     qc      0         |                
   |          3      0    0.250   2.005     qc      0         |                
   |          4      1   -1.028   2.005     qc      0         |                
   |          5      1    0.250   2.005     qc      0         |                
   |          6      2    0.000   2.005     qc      0         |                
   |          7      2    0.250   2.005     qc      0         |                
   |         loc     3    0.000   2.005     pn      0         |                
   |                                                          |                
   | Augmentation charge Rinner = 1.401                       |                
   | Partial core correction Rc = 1.401                       |                
   ------------------------------------------------------------                
   | "3|2.0|7|8|9|30U:40:31:32"                               |                
   ------------------------------------------------------------                
   |      Author: Chris J. Pickard, Cambridge University      |                
   ============================================================                
 
 Pseudo atomic calculation performed for O 2s2 2p4
 
 Converged in 24 iterations to a total energy of -431.6155 eV
 
 
 Pseudo atomic calculation performed for Ca 3s2 3p6 4s2
 
 Converged in 19 iterations to a total energy of -1001.6194 eV
 
 Calculation not parallelised.
 Warning: parameters_output - missing parameters file, using defaults

 ************************************ Title ************************************
 

 ***************************** General Parameters ******************************
  
 output verbosity                               : normal  (1)
 write checkpoint data to                       : ../Mg0Ca100.check
 type of calculation                            : single point energy
 stress calculation                             : off
 density difference calculation                 : off
 electron localisation func (ELF) calculation   : off
 Hirshfeld analysis                             : off
 unlimited duration calculation
 timing information                             : on
 memory usage estimate                          : on
 write final potential to formatted file        : off
 write final density to formatted file          : off
 write BibTeX reference list                    : on
 write OTFG pseudopotential files               : on
 checkpoint writing                             : both castep_bin and check files
 random number generator seed                   : randomised (142531889)

 *********************** Exchange-Correlation Parameters ***********************
  
 using functional                               : Local Density Approximation
 DFT+D: Semi-empirical dispersion correction    : off

 ************************* Pseudopotential Parameters **************************
  
 pseudopotential representation                 : reciprocal space
 <beta|phi> representation                      : reciprocal space
 spin-orbit coupling                            : off

 **************************** Basis Set Parameters *****************************
  
 basis set accuracy                             : FINE
 finite basis set correction                    : none

 **************************** Electronic Parameters ****************************
  
 number of  electrons                           :  64.00    
 net charge of system                           :  0.000    
 treating system as non-spin-polarized
 number of bands                                :         38

 ********************* Electronic Minimization Parameters **********************
  
 Method: Treating system as metallic with density mixing treatment of electrons,
         and number of  SD  steps               :          1
         and number of  CG  steps               :          4
  
 total energy / atom convergence tol.           : 0.1000E-04   eV
 eigen-energy convergence tolerance             : 0.1000E-05   eV
 max force / atom convergence tol.              : ignored
 periodic dipole correction                     : NONE

 ************************** Density Mixing Parameters **************************
  
 density-mixing scheme                          : Broyden
 max. length of mixing history                  :         20

 *********************** Population Analysis Parameters ************************
  
 Population analysis with cutoff                :  3.000       A

 *******************************************************************************
  
 
                           -------------------------------
                                      Unit Cell
                           -------------------------------
        Real Lattice(A)                      Reciprocal Lattice(1/A)
   4.2000000   0.0000000   0.0000000        1.4959965   0.0000000   0.0000000
   0.0000000   4.2000000   0.0000000        0.0000000   1.4959965   0.0000000
   0.0000000   0.0000000   4.2000000        0.0000000   0.0000000   1.4959965
 
                       Lattice parameters(A)       Cell Angles
                    a =    4.200000          alpha =   90.000000
                    b =    4.200000          beta  =   90.000000
                    c =    4.200000          gamma =   90.000000
 
                       Current cell volume =   74.088000       A**3
 
                           -------------------------------
                                     Cell Contents
                           -------------------------------
                         Total number of ions in cell =    8
                      Total number of species in cell =    2
                        Max number of any one species =    4
 
            xxxxxxxxxxxxxxxxxxxxxxxxxxxxxxxxxxxxxxxxxxxxxxxxxxxxxxxxxxxx
            x  Element    Atom        Fractional coordinates of atoms  x
            x            Number           u          v          w      x
            x----------------------------------------------------------x
            x  O            1         0.500000   0.500000   0.500000   x 
            x  O            2         0.500000   0.000000   0.000000   x 
            x  O            3         0.000000   0.500000   0.000000   x 
            x  O            4         0.000000   0.000000   0.500000   x 
            x  Ca           1         0.000000   0.000000   0.000000   x 
            x  Ca           2         0.000000   0.500000   0.500000   x 
            x  Ca           3         0.500000   0.000000   0.500000   x 
            x  Ca           4         0.500000   0.500000   0.000000   x 
            xxxxxxxxxxxxxxxxxxxxxxxxxxxxxxxxxxxxxxxxxxxxxxxxxxxxxxxxxxxx
 
 
                         No user defined ionic velocities
 
                           -------------------------------
                                   Details of Species
                           -------------------------------
 
                               Mass of species in AMU
                                    O   15.9994000
                                    Ca   40.0780000
 
                          Electric Quadrupole Moment (Barn)
                                    O   -0.0255800 Isotope 17
                                    Ca   -0.0408000 Isotope 43
 
                          Files used for pseudopotentials:
                                    O 2|1.1|15|18|20|20:21(qc=7)
                                    Ca 3|2.0|7|8|9|30U:40:31:32
 
                           -------------------------------
                              k-Points For BZ Sampling
                           -------------------------------
                       MP grid size for SCF calculation is  3  3  3
                            with an offset of   0.000  0.000  0.000
                       Number of kpoints used =             4
 
                           -------------------------------
                               Symmetry and Constraints
                           -------------------------------
 
                      Cell is a supercell containing 4 primitive cells
                      Maximum deviation from symmetry = 0.139888E-14     ANG
 
                      Number of symmetry operations   =         192
                      Number of ionic constraints     =           3
                      Point group of crystal =    32: Oh, m-3m, 4/m -3 2/m
                      Space group of crystal =   225: Fm-3m, -F 4 2 3
 
             Set iprint > 1 for details on symmetry rotations/translations
 
                         Centre of mass is constrained
             Set iprint > 1 for details of linear ionic constraints
 
                         Number of cell constraints= 5
                         Cell constraints are:  1 1 1 0 0 0
 
                         External pressure/stress (GPa)
                          0.00000   0.00000   0.00000
                                    0.00000   0.00000
                                              0.00000
  
+---------------- MEMORY AND SCRATCH DISK ESTIMATES PER PROCESS --------------+
|                                                     Memory          Disk    |
| Baseline code, static data and system overhead      146.0 MB         0.0 MB |
| BLAS internal memory storage                          0.0 MB         0.0 MB |
| Model and support data                               43.4 MB        48.2 MB |
| Electronic energy minimisation requirements          14.4 MB         0.0 MB |
| Force calculation requirements                        3.5 MB         0.0 MB |
|                                               ----------------------------- |
| Approx. total storage required per process          203.8 MB        48.2 MB |
|                                                                             |
| Requirements will fluctuate during execution and may exceed these estimates |
+-----------------------------------------------------------------------------+
------------------------------------------------------------------------ <-- SCF
SCF loop      Energy           Fermi           Energy gain       Timer   <-- SCF
                               energy          per atom          (sec)   <-- SCF
------------------------------------------------------------------------ <-- SCF
Initial  -4.69744001E+003  0.00000000E+000                         7.08  <-- SCF
      1  -5.63552719E+003  1.24655879E+001   1.17260897E+002       7.91  <-- SCF
      2  -5.78966960E+003  6.10617977E+000   1.92678018E+001       8.58  <-- SCF
      3  -5.79149517E+003  6.05966264E+000   2.28195783E-001       9.20  <-- SCF
      4  -5.79146551E+003  1.01907473E+001  -3.70729036E-003       9.95  <-- SCF
      5  -5.78401085E+003  8.51607545E+000  -9.31832148E-001      10.67  <-- SCF
      6  -5.78396976E+003  8.74309418E+000  -5.13571793E-003      11.45  <-- SCF
      7  -5.78396314E+003  8.84674279E+000  -8.28518913E-004      12.18  <-- SCF
      8  -5.78396261E+003  8.82952639E+000  -6.57915025E-005      12.90  <-- SCF
      9  -5.78396262E+003  8.83117062E+000   8.54676542E-007      13.47  <-- SCF
     10  -5.78396262E+003  8.83178720E+000   9.55975022E-008      13.96  <-- SCF
     11  -5.78396262E+003  8.83174257E+000   4.59657104E-009      14.44  <-- SCF
------------------------------------------------------------------------ <-- SCF
 
Final energy, E             =  -5783.962617612     eV
Final free energy (E-TS)    =  -5783.962617612     eV
(energies not corrected for finite basis set)
 
NB est. 0K energy (E-0.5TS)      =  -5783.962617612     eV
 

Writing analysis data to ../Mg0Ca100.castep_bin

Writing model to ../Mg0Ca100.check
 
 ***************** Symmetrised Forces *****************
 *                                                    *
 *            Cartesian components (eV/A)             *
 * -------------------------------------------------- *
 *                   x            y            z      *
 *                                                    *
 * O         1      0.00000      0.00000      0.00000 *
 * O         2      0.00000      0.00000      0.00000 *
 * O         3      0.00000      0.00000      0.00000 *
 * O         4      0.00000      0.00000      0.00000 *
 * Ca        1      0.00000      0.00000      0.00000 *
 * Ca        2      0.00000      0.00000      0.00000 *
 * Ca        3      0.00000      0.00000      0.00000 *
 * Ca        4      0.00000      0.00000      0.00000 *
 *                                                    *
 ******************************************************
 
 Pseudo atomic calculation performed for O 2s2 2p4
 
 Converged in 24 iterations to a total energy of -431.6155 eV
 
 
 Pseudo atomic calculation performed for Ca 3s2 3p6 4s2
 
 Converged in 19 iterations to a total energy of -1001.6194 eV
 
Charge spilling parameter for spin component 1 = 0.17%
 
     Atomic Populations (Mulliken)
     -----------------------------
Species   Ion     s      p      d      f     Total  Charge (e)
==============================================================
  O        1     1.83   5.04   0.00   0.00   6.87    -0.87
  O        2     1.83   5.04   0.00   0.00   6.87    -0.87
  O        3     1.83   5.04   0.00   0.00   6.87    -0.87
  O        4     1.83   5.04   0.00   0.00   6.87    -0.87
  Ca       1     2.15   5.99   0.99   0.00   9.13     0.87
  Ca       2     2.15   5.99   0.99   0.00   9.13     0.87
  Ca       3     2.15   5.99   0.99   0.00   9.13     0.87
  Ca       4     2.15   5.99   0.99   0.00   9.13     0.87
==============================================================
 
            Bond              Population      Length (A)
============================================================
          O 4 -- Ca 3              0.19        2.10000
          O 4 -- Ca 2              0.19        2.10000
          O 4 -- Ca 1              0.19        2.10000
          O 3 -- Ca 4              0.19        2.10000
          O 3 -- Ca 2              0.19        2.10000
          O 3 -- Ca 1              0.19        2.10000
          O 2 -- Ca 4              0.19        2.10000
          O 2 -- Ca 3              0.19        2.10000
          O 2 -- Ca 1              0.19        2.10000
          O 1 -- Ca 4              0.19        2.10000
          O 1 -- Ca 3              0.19        2.10000
          O 1 -- Ca 2              0.19        2.10000
         Ca 3 -- Ca 4             -0.25        2.96985
         Ca 2 -- Ca 4             -0.25        2.96985
         Ca 2 -- Ca 3             -0.25        2.96985
         Ca 1 -- Ca 4             -0.25        2.96985
         Ca 1 -- Ca 3             -0.25        2.96985
         Ca 1 -- Ca 2             -0.25        2.96985
          O 3 -- O 4              -0.04        2.96985
          O 2 -- O 4              -0.04        2.96985
          O 2 -- O 3              -0.04        2.96985
          O 1 -- O 4              -0.04        2.96985
          O 1 -- O 3              -0.04        2.96985
          O 1 -- O 2              -0.04        2.96985
============================================================
 

Writing analysis data to ../Mg0Ca100.castep_bin

Writing model to ../Mg0Ca100.check
 
 A BibTeX formatted list of references used in this run has been written to 
 ../Mg0Ca100.bib
 
Initialisation time =      6.14 s
Calculation time    =      9.72 s
Finalisation time   =      0.70 s
Total time          =     16.56 s
Peak Memory Use     = 520776 kB
 +-------------------------------------------------+
 |                                                 |
 |      CCC   AA    SSS  TTTTT  EEEEE  PPPP        |
 |     C     A  A  S       T    E      P   P       |
 |     C     AAAA   SS     T    EEE    PPPP        |
 |     C     A  A     S    T    E      P           |
 |      CCC  A  A  SSS     T    EEEEE  P           |
 |                                                 |
 +-------------------------------------------------+
 |                                                 |
 | Welcome to Academic Release CASTEP version 9.0  |
 | Ab Initio Total Energy Program                  |
 |                                                 |
 | Authors:                                        |
 | M. Segall, M. Probert, C. Pickard, P. Hasnip,   |
 | S. Clark, K. Refson, J. R. Yates, M. Payne      |
 |                                                 |
 | Contributors:                                   |
 | P. Lindan, P. Haynes, J. White, V. Milman,      |
 | N. Govind, M. Gibson, P. Tulip, V. Cocula,      |
 | B. Montanari, D. Quigley, M. Glover,            |
 | L. Bernasconi, A. Perlov, M. Plummer,           |
 | E. McNellis, J. Meyer, J. Gale, D. Jochym       |
 | J. Aarons, B. Walker, R. Gillen, D. Jones       |
 | T. Green, I. J. Bush, C. J. Armstrong,          |
 | E. J. Higgins, M. D. Hodgson                    |
 |                                                 |
 | Copyright (c) 2000 - 2015                       |
 |                                                 |
 |     Distributed under the terms of an           |
 |     Agreement between the United Kingdom        |
 |     Car-Parrinello (UKCP) Consortium,           |
 |     Daresbury Laboratory and Accelrys, Inc.     |
 |                                                 |
 | Please cite                                     |
 |                                                 |
 |     "First principles methods using CASTEP"     |
 |                                                 |
 |         Zeitschrift fuer Kristallographie       |
 |           220(5-6) pp. 567-570 (2005)           |
 |                                                 |
 | S. J. Clark, M. D. Segall, C. J. Pickard,       |
 | P. J. Hasnip, M. J. Probert, K. Refson,         |
 | M. C. Payne                                     |
 |                                                 |
 |       in all publications arising from          |
 |              your use of CASTEP                 |
 |                                                 |
 +-------------------------------------------------+
 
 
 Compiled for linux_x86_64_ifort12 on Fri, 09 Oct 2015 16:14:59 +0100
 from code version 01cdeb6dcbec+  Thu, 01 Oct 2015 17:06:55 +0100
 Compiler: Intel Fortran 12.1.5.339; Optimisation: fast
 MATHLIBS: Intel MKL(11.0.5) (LAPACK version 3.4.1)
 FFT Lib : default
 Fundamental constants values: CODATA 2010
 
 Run started: Wed, 20 Apr 2016 14:26:42 +0100
 Warning: parameters_read - missing parameters file, using defaults
 
 Atomic calculation performed for O: 1s2 2s2 2p4
 
 Converged in 60 iterations to an ae energy of -2027.926 eV
 
   ============================================================                
   | Pseudopotential Report - Date of generation 20-04-2016   |                
   ------------------------------------------------------------                
   | Element: O Ionic charge:  6.00 Level of theory: LDA      |                
   | Atomic Solver: Koelling-Harmon                           |                
   |                                                          |                
   |               Reference Electronic Structure             |                
   |         Orbital         Occupation         Energy        |                
   |            2s              2.000           -0.873        |                
   |            2p              4.000           -0.338        |                
   |                                                          |                
   |                 Pseudopotential Definition               |                
   |        Beta     l      e      Rc     scheme   norm       |                
   |          1      0   -0.873   1.100     qc      0         |                
   |          2      0    0.250   1.100     qc      0         |                
   |          3      1   -0.338   1.100     qc      0         |                
   |          4      1    0.250   1.100     qc      0         |                
   |         loc     2    0.000   1.100     pn      0         |                
   |                                                          |                
   | Augmentation charge Rinner = 0.769                       |                
   | Partial core correction Rc = 0.769                       |                
   ------------------------------------------------------------                
   | "2|1.1|15|18|20|20:21(qc=7)"                             |                
   ------------------------------------------------------------                
   |      Author: Chris J. Pickard, Cambridge University      |                
   ============================================================                
 
 Atomic calculation performed for Ca: 1s2 2s2 2p6 3s2 3p6 4s2
 
 Converged in 44 iterations to an ae energy of -18468.059 eV
 
   ============================================================                
   | Pseudopotential Report - Date of generation 20-04-2016   |                
   ------------------------------------------------------------                
   | Element: Ca Ionic charge: 10.00 Level of theory: LDA     |                
   | Atomic Solver: Koelling-Harmon                           |                
   |                                                          |                
   |               Reference Electronic Structure             |                
   |         Orbital         Occupation         Energy        |                
   |            3s              2.000           -1.721        |                
   |            3p              6.000           -1.028        |                
   |            4s              2.000           -0.142        |                
   |                                                          |                
   |                 Pseudopotential Definition               |                
   |        Beta     l      e      Rc     scheme   norm       |                
   |          1      0   -1.721   2.005     qc      0         |                
   |          2      0   -0.142   2.005     qc      0         |                
   |          3      0    0.250   2.005     qc      0         |                
   |          4      1   -1.028   2.005     qc      0         |                
   |          5      1    0.250   2.005     qc      0         |                
   |          6      2    0.000   2.005     qc      0         |                
   |          7      2    0.250   2.005     qc      0         |                
   |         loc     3    0.000   2.005     pn      0         |                
   |                                                          |                
   | Augmentation charge Rinner = 1.401                       |                
   | Partial core correction Rc = 1.401                       |                
   ------------------------------------------------------------                
   | "3|2.0|7|8|9|30U:40:31:32"                               |                
   ------------------------------------------------------------                
   |      Author: Chris J. Pickard, Cambridge University      |                
   ============================================================                
 
 Pseudo atomic calculation performed for O 2s2 2p4
 
 Converged in 24 iterations to a total energy of -431.6155 eV
 
 
 Pseudo atomic calculation performed for Ca 3s2 3p6 4s2
 
 Converged in 19 iterations to a total energy of -1001.6194 eV
 
 Calculation not parallelised.
 Warning: parameters_output - missing parameters file, using defaults

 ************************************ Title ************************************
 

 ***************************** General Parameters ******************************
  
 output verbosity                               : normal  (1)
 write checkpoint data to                       : ../Mg0Ca100.check
 type of calculation                            : single point energy
 stress calculation                             : off
 density difference calculation                 : off
 electron localisation func (ELF) calculation   : off
 Hirshfeld analysis                             : off
 unlimited duration calculation
 timing information                             : on
 memory usage estimate                          : on
 write final potential to formatted file        : off
 write final density to formatted file          : off
 write BibTeX reference list                    : on
 write OTFG pseudopotential files               : on
 checkpoint writing                             : both castep_bin and check files
 random number generator seed                   : randomised (142642188)

 *********************** Exchange-Correlation Parameters ***********************
  
 using functional                               : Local Density Approximation
 DFT+D: Semi-empirical dispersion correction    : off

 ************************* Pseudopotential Parameters **************************
  
 pseudopotential representation                 : reciprocal space
 <beta|phi> representation                      : reciprocal space
 spin-orbit coupling                            : off

 **************************** Basis Set Parameters *****************************
  
 basis set accuracy                             : FINE
 finite basis set correction                    : none

 **************************** Electronic Parameters ****************************
  
 number of  electrons                           :  64.00    
 net charge of system                           :  0.000    
 treating system as non-spin-polarized
 number of bands                                :         38

 ********************* Electronic Minimization Parameters **********************
  
 Method: Treating system as metallic with density mixing treatment of electrons,
         and number of  SD  steps               :          1
         and number of  CG  steps               :          4
  
 total energy / atom convergence tol.           : 0.1000E-04   eV
 eigen-energy convergence tolerance             : 0.1000E-05   eV
 max force / atom convergence tol.              : ignored
 periodic dipole correction                     : NONE

 ************************** Density Mixing Parameters **************************
  
 density-mixing scheme                          : Broyden
 max. length of mixing history                  :         20

 *********************** Population Analysis Parameters ************************
  
 Population analysis with cutoff                :  3.000       A

 *******************************************************************************
  
 
                           -------------------------------
                                      Unit Cell
                           -------------------------------
        Real Lattice(A)                      Reciprocal Lattice(1/A)
   4.2000000   0.0000000   0.0000000        1.4959965   0.0000000   0.0000000
   0.0000000   4.2000000   0.0000000        0.0000000   1.4959965   0.0000000
   0.0000000   0.0000000   4.2000000        0.0000000   0.0000000   1.4959965
 
                       Lattice parameters(A)       Cell Angles
                    a =    4.200000          alpha =   90.000000
                    b =    4.200000          beta  =   90.000000
                    c =    4.200000          gamma =   90.000000
 
                       Current cell volume =   74.088000       A**3
 
                           -------------------------------
                                     Cell Contents
                           -------------------------------
                         Total number of ions in cell =    8
                      Total number of species in cell =    2
                        Max number of any one species =    4
 
            xxxxxxxxxxxxxxxxxxxxxxxxxxxxxxxxxxxxxxxxxxxxxxxxxxxxxxxxxxxx
            x  Element    Atom        Fractional coordinates of atoms  x
            x            Number           u          v          w      x
            x----------------------------------------------------------x
            x  O            1         0.500000   0.500000   0.500000   x 
            x  O            2         0.500000   0.000000   0.000000   x 
            x  O            3         0.000000   0.500000   0.000000   x 
            x  O            4         0.000000   0.000000   0.500000   x 
            x  Ca           1         0.000000   0.000000   0.000000   x 
            x  Ca           2         0.000000   0.500000   0.500000   x 
            x  Ca           3         0.500000   0.000000   0.500000   x 
            x  Ca           4         0.500000   0.500000   0.000000   x 
            xxxxxxxxxxxxxxxxxxxxxxxxxxxxxxxxxxxxxxxxxxxxxxxxxxxxxxxxxxxx
 
 
                         No user defined ionic velocities
 
                           -------------------------------
                                   Details of Species
                           -------------------------------
 
                               Mass of species in AMU
                                    O   15.9994000
                                    Ca   40.0780000
 
                          Electric Quadrupole Moment (Barn)
                                    O   -0.0255800 Isotope 17
                                    Ca   -0.0408000 Isotope 43
 
                          Files used for pseudopotentials:
                                    O 2|1.1|15|18|20|20:21(qc=7)
                                    Ca 3|2.0|7|8|9|30U:40:31:32
 
                           -------------------------------
                              k-Points For BZ Sampling
                           -------------------------------
                       MP grid size for SCF calculation is  3  3  3
                            with an offset of   0.000  0.000  0.000
                       Number of kpoints used =             4
 
                           -------------------------------
                               Symmetry and Constraints
                           -------------------------------
 
                      Cell is a supercell containing 4 primitive cells
                      Maximum deviation from symmetry = 0.139888E-14     ANG
 
                      Number of symmetry operations   =         192
                      Number of ionic constraints     =           3
                      Point group of crystal =    32: Oh, m-3m, 4/m -3 2/m
                      Space group of crystal =   225: Fm-3m, -F 4 2 3
 
             Set iprint > 1 for details on symmetry rotations/translations
 
                         Centre of mass is constrained
             Set iprint > 1 for details of linear ionic constraints
 
                         Number of cell constraints= 5
                         Cell constraints are:  1 1 1 0 0 0
 
                         External pressure/stress (GPa)
                          0.00000   0.00000   0.00000
                                    0.00000   0.00000
                                              0.00000
  
+---------------- MEMORY AND SCRATCH DISK ESTIMATES PER PROCESS --------------+
|                                                     Memory          Disk    |
| Baseline code, static data and system overhead      146.0 MB         0.0 MB |
| BLAS internal memory storage                          0.0 MB         0.0 MB |
| Model and support data                               43.4 MB        48.2 MB |
| Electronic energy minimisation requirements          14.4 MB         0.0 MB |
| Force calculation requirements                        3.5 MB         0.0 MB |
|                                               ----------------------------- |
| Approx. total storage required per process          203.8 MB        48.2 MB |
|                                                                             |
| Requirements will fluctuate during execution and may exceed these estimates |
+-----------------------------------------------------------------------------+
------------------------------------------------------------------------ <-- SCF
SCF loop      Energy           Fermi           Energy gain       Timer   <-- SCF
                               energy          per atom          (sec)   <-- SCF
------------------------------------------------------------------------ <-- SCF
Initial  -4.70112736E+003  0.00000000E+000                         8.28  <-- SCF
      1  -5.63773525E+003  1.27982742E+001   1.17075986E+002       9.10  <-- SCF
      2  -5.78950621E+003  6.32795941E+000   1.89713709E+001       9.78  <-- SCF
      3  -5.79149606E+003  6.06418032E+000   2.48731203E-001      10.41  <-- SCF
      4  -5.79145929E+003  1.01816082E+001  -4.59632422E-003      11.13  <-- SCF
      5  -5.78401417E+003  8.51480949E+000  -9.30640051E-001      11.85  <-- SCF
      6  -5.78396980E+003  8.74282560E+000  -5.54686069E-003      12.64  <-- SCF
      7  -5.78396314E+003  8.84709331E+000  -8.31871832E-004      13.35  <-- SCF
      8  -5.78396261E+003  8.82951794E+000  -6.66151377E-005      14.10  <-- SCF
      9  -5.78396262E+003  8.83115667E+000   8.69906315E-007      14.66  <-- SCF
     10  -5.78396262E+003  8.83178037E+000   9.75092356E-008      15.16  <-- SCF
     11  -5.78396262E+003  8.83174147E+000   4.76024057E-009      15.64  <-- SCF
------------------------------------------------------------------------ <-- SCF
 
Final energy, E             =  -5783.962617611     eV
Final free energy (E-TS)    =  -5783.962617611     eV
(energies not corrected for finite basis set)
 
NB est. 0K energy (E-0.5TS)      =  -5783.962617611     eV
 

Writing analysis data to ../Mg0Ca100.castep_bin

Writing model to ../Mg0Ca100.check
 
 ***************** Symmetrised Forces *****************
 *                                                    *
 *            Cartesian components (eV/A)             *
 * -------------------------------------------------- *
 *                   x            y            z      *
 *                                                    *
 * O         1      0.00000      0.00000      0.00000 *
 * O         2      0.00000      0.00000      0.00000 *
 * O         3      0.00000      0.00000      0.00000 *
 * O         4      0.00000      0.00000      0.00000 *
 * Ca        1      0.00000      0.00000      0.00000 *
 * Ca        2      0.00000      0.00000      0.00000 *
 * Ca        3      0.00000      0.00000      0.00000 *
 * Ca        4      0.00000      0.00000      0.00000 *
 *                                                    *
 ******************************************************
 
 Pseudo atomic calculation performed for O 2s2 2p4
 
 Converged in 24 iterations to a total energy of -431.6155 eV
 
 
 Pseudo atomic calculation performed for Ca 3s2 3p6 4s2
 
 Converged in 19 iterations to a total energy of -1001.6194 eV
 
Charge spilling parameter for spin component 1 = 0.17%
 
     Atomic Populations (Mulliken)
     -----------------------------
Species   Ion     s      p      d      f     Total  Charge (e)
==============================================================
  O        1     1.83   5.04   0.00   0.00   6.87    -0.87
  O        2     1.83   5.04   0.00   0.00   6.87    -0.87
  O        3     1.83   5.04   0.00   0.00   6.87    -0.87
  O        4     1.83   5.04   0.00   0.00   6.87    -0.87
  Ca       1     2.15   5.99   0.99   0.00   9.13     0.87
  Ca       2     2.15   5.99   0.99   0.00   9.13     0.87
  Ca       3     2.15   5.99   0.99   0.00   9.13     0.87
  Ca       4     2.15   5.99   0.99   0.00   9.13     0.87
==============================================================
 
            Bond              Population      Length (A)
============================================================
          O 4 -- Ca 3              0.19        2.10000
          O 4 -- Ca 2              0.19        2.10000
          O 4 -- Ca 1              0.19        2.10000
          O 3 -- Ca 4              0.19        2.10000
          O 3 -- Ca 2              0.19        2.10000
          O 3 -- Ca 1              0.19        2.10000
          O 2 -- Ca 4              0.19        2.10000
          O 2 -- Ca 3              0.19        2.10000
          O 2 -- Ca 1              0.19        2.10000
          O 1 -- Ca 4              0.19        2.10000
          O 1 -- Ca 3              0.19        2.10000
          O 1 -- Ca 2              0.19        2.10000
         Ca 3 -- Ca 4             -0.25        2.96985
         Ca 2 -- Ca 4             -0.25        2.96985
         Ca 2 -- Ca 3             -0.25        2.96985
         Ca 1 -- Ca 4             -0.25        2.96985
         Ca 1 -- Ca 3             -0.25        2.96985
         Ca 1 -- Ca 2             -0.25        2.96985
          O 3 -- O 4              -0.04        2.96985
          O 2 -- O 4              -0.04        2.96985
          O 2 -- O 3              -0.04        2.96985
          O 1 -- O 4              -0.04        2.96985
          O 1 -- O 3              -0.04        2.96985
          O 1 -- O 2              -0.04        2.96985
============================================================
 

Writing analysis data to ../Mg0Ca100.castep_bin

Writing model to ../Mg0Ca100.check
 
 A BibTeX formatted list of references used in this run has been written to 
 ../Mg0Ca100.bib
 
Initialisation time =      7.33 s
Calculation time    =      9.70 s
Finalisation time   =      0.69 s
Total time          =     17.72 s
Peak Memory Use     = 520780 kB
 +-------------------------------------------------+
 |                                                 |
 |      CCC   AA    SSS  TTTTT  EEEEE  PPPP        |
 |     C     A  A  S       T    E      P   P       |
 |     C     AAAA   SS     T    EEE    PPPP        |
 |     C     A  A     S    T    E      P           |
 |      CCC  A  A  SSS     T    EEEEE  P           |
 |                                                 |
 +-------------------------------------------------+
 |                                                 |
 | Welcome to Academic Release CASTEP version 9.0  |
 | Ab Initio Total Energy Program                  |
 |                                                 |
 | Authors:                                        |
 | M. Segall, M. Probert, C. Pickard, P. Hasnip,   |
 | S. Clark, K. Refson, J. R. Yates, M. Payne      |
 |                                                 |
 | Contributors:                                   |
 | P. Lindan, P. Haynes, J. White, V. Milman,      |
 | N. Govind, M. Gibson, P. Tulip, V. Cocula,      |
 | B. Montanari, D. Quigley, M. Glover,            |
 | L. Bernasconi, A. Perlov, M. Plummer,           |
 | E. McNellis, J. Meyer, J. Gale, D. Jochym       |
 | J. Aarons, B. Walker, R. Gillen, D. Jones       |
 | T. Green, I. J. Bush, C. J. Armstrong,          |
 | E. J. Higgins, M. D. Hodgson                    |
 |                                                 |
 | Copyright (c) 2000 - 2015                       |
 |                                                 |
 |     Distributed under the terms of an           |
 |     Agreement between the United Kingdom        |
 |     Car-Parrinello (UKCP) Consortium,           |
 |     Daresbury Laboratory and Accelrys, Inc.     |
 |                                                 |
 | Please cite                                     |
 |                                                 |
 |     "First principles methods using CASTEP"     |
 |                                                 |
 |         Zeitschrift fuer Kristallographie       |
 |           220(5-6) pp. 567-570 (2005)           |
 |                                                 |
 | S. J. Clark, M. D. Segall, C. J. Pickard,       |
 | P. J. Hasnip, M. J. Probert, K. Refson,         |
 | M. C. Payne                                     |
 |                                                 |
 |       in all publications arising from          |
 |              your use of CASTEP                 |
 |                                                 |
 +-------------------------------------------------+
 
 
 Compiled for linux_x86_64_ifort12 on Fri, 09 Oct 2015 16:14:59 +0100
 from code version 01cdeb6dcbec+  Thu, 01 Oct 2015 17:06:55 +0100
 Compiler: Intel Fortran 12.1.5.339; Optimisation: fast
 MATHLIBS: Intel MKL(11.0.5) (LAPACK version 3.4.1)
 FFT Lib : default
 Fundamental constants values: CODATA 2010
 
 Run started: Wed, 20 Apr 2016 14:30:12 +0100
 Warning: parameters_read - missing parameters file, using defaults
 
 Atomic calculation performed for O: 1s2 2s2 2p4
 
 Converged in 60 iterations to an ae energy of -2027.926 eV
 
   ============================================================                
   | Pseudopotential Report - Date of generation 20-04-2016   |                
   ------------------------------------------------------------                
   | Element: O Ionic charge:  6.00 Level of theory: LDA      |                
   | Atomic Solver: Koelling-Harmon                           |                
   |                                                          |                
   |               Reference Electronic Structure             |                
   |         Orbital         Occupation         Energy        |                
   |            2s              2.000           -0.873        |                
   |            2p              4.000           -0.338        |                
   |                                                          |                
   |                 Pseudopotential Definition               |                
   |        Beta     l      e      Rc     scheme   norm       |                
   |          1      0   -0.873   1.100     qc      0         |                
   |          2      0    0.250   1.100     qc      0         |                
   |          3      1   -0.338   1.100     qc      0         |                
   |          4      1    0.250   1.100     qc      0         |                
   |         loc     2    0.000   1.100     pn      0         |                
   |                                                          |                
   | Augmentation charge Rinner = 0.769                       |                
   | Partial core correction Rc = 0.769                       |                
   ------------------------------------------------------------                
   | "2|1.1|15|18|20|20:21(qc=7)"                             |                
   ------------------------------------------------------------                
   |      Author: Chris J. Pickard, Cambridge University      |                
   ============================================================                
 
 Atomic calculation performed for Ca: 1s2 2s2 2p6 3s2 3p6 4s2
 
 Converged in 44 iterations to an ae energy of -18468.059 eV
 
   ============================================================                
   | Pseudopotential Report - Date of generation 20-04-2016   |                
   ------------------------------------------------------------                
   | Element: Ca Ionic charge: 10.00 Level of theory: LDA     |                
   | Atomic Solver: Koelling-Harmon                           |                
   |                                                          |                
   |               Reference Electronic Structure             |                
   |         Orbital         Occupation         Energy        |                
   |            3s              2.000           -1.721        |                
   |            3p              6.000           -1.028        |                
   |            4s              2.000           -0.142        |                
   |                                                          |                
   |                 Pseudopotential Definition               |                
   |        Beta     l      e      Rc     scheme   norm       |                
   |          1      0   -1.721   2.005     qc      0         |                
   |          2      0   -0.142   2.005     qc      0         |                
   |          3      0    0.250   2.005     qc      0         |                
   |          4      1   -1.028   2.005     qc      0         |                
   |          5      1    0.250   2.005     qc      0         |                
   |          6      2    0.000   2.005     qc      0         |                
   |          7      2    0.250   2.005     qc      0         |                
   |         loc     3    0.000   2.005     pn      0         |                
   |                                                          |                
   | Augmentation charge Rinner = 1.401                       |                
   | Partial core correction Rc = 1.401                       |                
   ------------------------------------------------------------                
   | "3|2.0|7|8|9|30U:40:31:32"                               |                
   ------------------------------------------------------------                
   |      Author: Chris J. Pickard, Cambridge University      |                
   ============================================================                
 
 Pseudo atomic calculation performed for O 2s2 2p4
 
 Converged in 24 iterations to a total energy of -431.6155 eV
 
 
 Pseudo atomic calculation performed for Ca 3s2 3p6 4s2
 
 Converged in 19 iterations to a total energy of -1001.6194 eV
 
 Calculation not parallelised.
 Warning: parameters_output - missing parameters file, using defaults

 ************************************ Title ************************************
 

 ***************************** General Parameters ******************************
  
 output verbosity                               : normal  (1)
 write checkpoint data to                       : ../Mg0Ca100.check
 type of calculation                            : single point energy
 stress calculation                             : off
 density difference calculation                 : off
 electron localisation func (ELF) calculation   : off
 Hirshfeld analysis                             : off
 unlimited duration calculation
 timing information                             : on
 memory usage estimate                          : on
 write final potential to formatted file        : off
 write final density to formatted file          : off
 write BibTeX reference list                    : on
 write OTFG pseudopotential files               : on
 checkpoint writing                             : both castep_bin and check files
 random number generator seed                   : randomised (143012487)

 *********************** Exchange-Correlation Parameters ***********************
  
 using functional                               : Local Density Approximation
 DFT+D: Semi-empirical dispersion correction    : off

 ************************* Pseudopotential Parameters **************************
  
 pseudopotential representation                 : reciprocal space
 <beta|phi> representation                      : reciprocal space
 spin-orbit coupling                            : off

 **************************** Basis Set Parameters *****************************
  
 basis set accuracy                             : FINE
 finite basis set correction                    : none

 **************************** Electronic Parameters ****************************
  
 number of  electrons                           :  64.00    
 net charge of system                           :  0.000    
 treating system as non-spin-polarized
 number of bands                                :         38

 ********************* Electronic Minimization Parameters **********************
  
 Method: Treating system as metallic with density mixing treatment of electrons,
         and number of  SD  steps               :          1
         and number of  CG  steps               :          4
  
 total energy / atom convergence tol.           : 0.1000E-04   eV
 eigen-energy convergence tolerance             : 0.1000E-05   eV
 max force / atom convergence tol.              : ignored
 periodic dipole correction                     : NONE

 ************************** Density Mixing Parameters **************************
  
 density-mixing scheme                          : Broyden
 max. length of mixing history                  :         20

 *********************** Population Analysis Parameters ************************
  
 Population analysis with cutoff                :  3.000       A

 *******************************************************************************
  
 
                           -------------------------------
                                      Unit Cell
                           -------------------------------
        Real Lattice(A)                      Reciprocal Lattice(1/A)
   4.2000000   0.0000000   0.0000000        1.4959965   0.0000000   0.0000000
   0.0000000   4.2000000   0.0000000        0.0000000   1.4959965   0.0000000
   0.0000000   0.0000000   4.2000000        0.0000000   0.0000000   1.4959965
 
                       Lattice parameters(A)       Cell Angles
                    a =    4.200000          alpha =   90.000000
                    b =    4.200000          beta  =   90.000000
                    c =    4.200000          gamma =   90.000000
 
                       Current cell volume =   74.088000       A**3
 
                           -------------------------------
                                     Cell Contents
                           -------------------------------
                         Total number of ions in cell =    8
                      Total number of species in cell =    2
                        Max number of any one species =    4
 
            xxxxxxxxxxxxxxxxxxxxxxxxxxxxxxxxxxxxxxxxxxxxxxxxxxxxxxxxxxxx
            x  Element    Atom        Fractional coordinates of atoms  x
            x            Number           u          v          w      x
            x----------------------------------------------------------x
            x  O            1         0.500000   0.500000   0.500000   x 
            x  O            2         0.500000   0.000000   0.000000   x 
            x  O            3         0.000000   0.500000   0.000000   x 
            x  O            4         0.000000   0.000000   0.500000   x 
            x  Ca           1         0.000000   0.000000   0.000000   x 
            x  Ca           2         0.000000   0.500000   0.500000   x 
            x  Ca           3         0.500000   0.000000   0.500000   x 
            x  Ca           4         0.500000   0.500000   0.000000   x 
            xxxxxxxxxxxxxxxxxxxxxxxxxxxxxxxxxxxxxxxxxxxxxxxxxxxxxxxxxxxx
 
 
                         No user defined ionic velocities
 
                           -------------------------------
                                   Details of Species
                           -------------------------------
 
                               Mass of species in AMU
                                    O   15.9994000
                                    Ca   40.0780000
 
                          Electric Quadrupole Moment (Barn)
                                    O   -0.0255800 Isotope 17
                                    Ca   -0.0408000 Isotope 43
 
                          Files used for pseudopotentials:
                                    O 2|1.1|15|18|20|20:21(qc=7)
                                    Ca 3|2.0|7|8|9|30U:40:31:32
 
                           -------------------------------
                              k-Points For BZ Sampling
                           -------------------------------
                       MP grid size for SCF calculation is  3  3  3
                            with an offset of   0.000  0.000  0.000
                       Number of kpoints used =             4
 
                           -------------------------------
                               Symmetry and Constraints
                           -------------------------------
 
                      Cell is a supercell containing 4 primitive cells
                      Maximum deviation from symmetry = 0.139888E-14     ANG
 
                      Number of symmetry operations   =         192
                      Number of ionic constraints     =           3
                      Point group of crystal =    32: Oh, m-3m, 4/m -3 2/m
                      Space group of crystal =   225: Fm-3m, -F 4 2 3
 
             Set iprint > 1 for details on symmetry rotations/translations
 
                         Centre of mass is constrained
             Set iprint > 1 for details of linear ionic constraints
 
                         Number of cell constraints= 5
                         Cell constraints are:  1 1 1 0 0 0
 
                         External pressure/stress (GPa)
                          0.00000   0.00000   0.00000
                                    0.00000   0.00000
                                              0.00000
  
+---------------- MEMORY AND SCRATCH DISK ESTIMATES PER PROCESS --------------+
|                                                     Memory          Disk    |
| Baseline code, static data and system overhead      146.0 MB         0.0 MB |
| BLAS internal memory storage                          0.0 MB         0.0 MB |
| Model and support data                               43.4 MB        48.2 MB |
| Electronic energy minimisation requirements          14.4 MB         0.0 MB |
| Force calculation requirements                        3.5 MB         0.0 MB |
|                                               ----------------------------- |
| Approx. total storage required per process          203.8 MB        48.2 MB |
|                                                                             |
| Requirements will fluctuate during execution and may exceed these estimates |
+-----------------------------------------------------------------------------+
------------------------------------------------------------------------ <-- SCF
SCF loop      Energy           Fermi           Energy gain       Timer   <-- SCF
                               energy          per atom          (sec)   <-- SCF
------------------------------------------------------------------------ <-- SCF
Initial  -4.70839792E+003  0.00000000E+000                         7.26  <-- SCF
      1  -5.63267709E+003  1.31545200E+001   1.15534896E+002       8.09  <-- SCF
      2  -5.78951450E+003  6.20292110E+000   1.96046764E+001       8.78  <-- SCF
      3  -5.79149625E+003  6.05935621E+000   2.47718399E-001       9.44  <-- SCF
      4  -5.79144455E+003  1.01848319E+001  -6.46210843E-003      10.22  <-- SCF
      5  -5.78401295E+003  8.51388996E+000  -9.28949526E-001      10.99  <-- SCF
      6  -5.78396992E+003  8.74231447E+000  -5.37876904E-003      11.81  <-- SCF
      7  -5.78396314E+003  8.84690430E+000  -8.47467240E-004      12.54  <-- SCF
      8  -5.78396261E+003  8.82947414E+000  -6.68779174E-005      13.30  <-- SCF
      9  -5.78396262E+003  8.83116283E+000   8.50909532E-007      13.87  <-- SCF
     10  -5.78396262E+003  8.83179546E+000   9.72791509E-008      14.38  <-- SCF
     11  -5.78396262E+003  8.83174553E+000   4.70629633E-009      14.88  <-- SCF
------------------------------------------------------------------------ <-- SCF
 
Final energy, E             =  -5783.962617202     eV
Final free energy (E-TS)    =  -5783.962617202     eV
(energies not corrected for finite basis set)
 
NB est. 0K energy (E-0.5TS)      =  -5783.962617202     eV
 

Writing analysis data to ../Mg0Ca100.castep_bin

Writing model to ../Mg0Ca100.check
 
 ***************** Symmetrised Forces *****************
 *                                                    *
 *            Cartesian components (eV/A)             *
 * -------------------------------------------------- *
 *                   x            y            z      *
 *                                                    *
 * O         1      0.00000      0.00000      0.00000 *
 * O         2      0.00000      0.00000      0.00000 *
 * O         3      0.00000      0.00000      0.00000 *
 * O         4      0.00000      0.00000      0.00000 *
 * Ca        1      0.00000      0.00000      0.00000 *
 * Ca        2      0.00000      0.00000      0.00000 *
 * Ca        3      0.00000      0.00000      0.00000 *
 * Ca        4      0.00000      0.00000      0.00000 *
 *                                                    *
 ******************************************************
 
 Pseudo atomic calculation performed for O 2s2 2p4
 
 Converged in 24 iterations to a total energy of -431.6155 eV
 
 
 Pseudo atomic calculation performed for Ca 3s2 3p6 4s2
 
 Converged in 19 iterations to a total energy of -1001.6194 eV
 
Charge spilling parameter for spin component 1 = 0.17%
 
     Atomic Populations (Mulliken)
     -----------------------------
Species   Ion     s      p      d      f     Total  Charge (e)
==============================================================
  O        1     1.83   5.04   0.00   0.00   6.87    -0.87
  O        2     1.83   5.04   0.00   0.00   6.87    -0.87
  O        3     1.83   5.04   0.00   0.00   6.87    -0.87
  O        4     1.83   5.04   0.00   0.00   6.87    -0.87
  Ca       1     2.15   5.99   0.99   0.00   9.13     0.87
  Ca       2     2.15   5.99   0.99   0.00   9.13     0.87
  Ca       3     2.15   5.99   0.99   0.00   9.13     0.87
  Ca       4     2.15   5.99   0.99   0.00   9.13     0.87
==============================================================
 
            Bond              Population      Length (A)
============================================================
          O 4 -- Ca 3              0.19        2.10000
          O 4 -- Ca 2              0.19        2.10000
          O 4 -- Ca 1              0.19        2.10000
          O 3 -- Ca 4              0.19        2.10000
          O 3 -- Ca 2              0.19        2.10000
          O 3 -- Ca 1              0.19        2.10000
          O 2 -- Ca 4              0.19        2.10000
          O 2 -- Ca 3              0.19        2.10000
          O 2 -- Ca 1              0.19        2.10000
          O 1 -- Ca 4              0.19        2.10000
          O 1 -- Ca 3              0.19        2.10000
          O 1 -- Ca 2              0.19        2.10000
         Ca 3 -- Ca 4             -0.25        2.96985
         Ca 2 -- Ca 4             -0.25        2.96985
         Ca 2 -- Ca 3             -0.25        2.96985
         Ca 1 -- Ca 4             -0.25        2.96985
         Ca 1 -- Ca 3             -0.25        2.96985
         Ca 1 -- Ca 2             -0.25        2.96985
          O 3 -- O 4              -0.04        2.96985
          O 2 -- O 4              -0.04        2.96985
          O 2 -- O 3              -0.04        2.96985
          O 1 -- O 4              -0.04        2.96985
          O 1 -- O 3              -0.04        2.96985
          O 1 -- O 2              -0.04        2.96985
============================================================
 

Writing analysis data to ../Mg0Ca100.castep_bin

Writing model to ../Mg0Ca100.check
 
 A BibTeX formatted list of references used in this run has been written to 
 ../Mg0Ca100.bib
 
Initialisation time =      6.25 s
Calculation time    =     10.07 s
Finalisation time   =      0.78 s
Total time          =     17.09 s
Peak Memory Use     = 520756 kB
 +-------------------------------------------------+
 |                                                 |
 |      CCC   AA    SSS  TTTTT  EEEEE  PPPP        |
 |     C     A  A  S       T    E      P   P       |
 |     C     AAAA   SS     T    EEE    PPPP        |
 |     C     A  A     S    T    E      P           |
 |      CCC  A  A  SSS     T    EEEEE  P           |
 |                                                 |
 +-------------------------------------------------+
 |                                                 |
 | Welcome to Academic Release CASTEP version 9.0  |
 | Ab Initio Total Energy Program                  |
 |                                                 |
 | Authors:                                        |
 | M. Segall, M. Probert, C. Pickard, P. Hasnip,   |
 | S. Clark, K. Refson, J. R. Yates, M. Payne      |
 |                                                 |
 | Contributors:                                   |
 | P. Lindan, P. Haynes, J. White, V. Milman,      |
 | N. Govind, M. Gibson, P. Tulip, V. Cocula,      |
 | B. Montanari, D. Quigley, M. Glover,            |
 | L. Bernasconi, A. Perlov, M. Plummer,           |
 | E. McNellis, J. Meyer, J. Gale, D. Jochym       |
 | J. Aarons, B. Walker, R. Gillen, D. Jones       |
 | T. Green, I. J. Bush, C. J. Armstrong,          |
 | E. J. Higgins, M. D. Hodgson                    |
 |                                                 |
 | Copyright (c) 2000 - 2015                       |
 |                                                 |
 |     Distributed under the terms of an           |
 |     Agreement between the United Kingdom        |
 |     Car-Parrinello (UKCP) Consortium,           |
 |     Daresbury Laboratory and Accelrys, Inc.     |
 |                                                 |
 | Please cite                                     |
 |                                                 |
 |     "First principles methods using CASTEP"     |
 |                                                 |
 |         Zeitschrift fuer Kristallographie       |
 |           220(5-6) pp. 567-570 (2005)           |
 |                                                 |
 | S. J. Clark, M. D. Segall, C. J. Pickard,       |
 | P. J. Hasnip, M. J. Probert, K. Refson,         |
 | M. C. Payne                                     |
 |                                                 |
 |       in all publications arising from          |
 |              your use of CASTEP                 |
 |                                                 |
 +-------------------------------------------------+
 
 
 Compiled for linux_x86_64_ifort12 on Fri, 09 Oct 2015 16:14:59 +0100
 from code version 01cdeb6dcbec+  Thu, 01 Oct 2015 17:06:55 +0100
 Compiler: Intel Fortran 12.1.5.339; Optimisation: fast
 MATHLIBS: Intel MKL(11.0.5) (LAPACK version 3.4.1)
 FFT Lib : default
 Fundamental constants values: CODATA 2010
 
 Run started: Wed, 20 Apr 2016 14:31:48 +0100
 Warning: parameters_read - missing parameters file, using defaults
 
 Atomic calculation performed for O: 1s2 2s2 2p4
 
 Converged in 60 iterations to an ae energy of -2027.926 eV
 
   ============================================================                
   | Pseudopotential Report - Date of generation 20-04-2016   |                
   ------------------------------------------------------------                
   | Element: O Ionic charge:  6.00 Level of theory: LDA      |                
   | Atomic Solver: Koelling-Harmon                           |                
   |                                                          |                
   |               Reference Electronic Structure             |                
   |         Orbital         Occupation         Energy        |                
   |            2s              2.000           -0.873        |                
   |            2p              4.000           -0.338        |                
   |                                                          |                
   |                 Pseudopotential Definition               |                
   |        Beta     l      e      Rc     scheme   norm       |                
   |          1      0   -0.873   1.100     qc      0         |                
   |          2      0    0.250   1.100     qc      0         |                
   |          3      1   -0.338   1.100     qc      0         |                
   |          4      1    0.250   1.100     qc      0         |                
   |         loc     2    0.000   1.100     pn      0         |                
   |                                                          |                
   | Augmentation charge Rinner = 0.769                       |                
   | Partial core correction Rc = 0.769                       |                
   ------------------------------------------------------------                
   | "2|1.1|15|18|20|20:21(qc=7)"                             |                
   ------------------------------------------------------------                
   |      Author: Chris J. Pickard, Cambridge University      |                
   ============================================================                
 
 Atomic calculation performed for Ca: 1s2 2s2 2p6 3s2 3p6 4s2
 
 Converged in 44 iterations to an ae energy of -18468.059 eV
 
   ============================================================                
   | Pseudopotential Report - Date of generation 20-04-2016   |                
   ------------------------------------------------------------                
   | Element: Ca Ionic charge: 10.00 Level of theory: LDA     |                
   | Atomic Solver: Koelling-Harmon                           |                
   |                                                          |                
   |               Reference Electronic Structure             |                
   |         Orbital         Occupation         Energy        |                
   |            3s              2.000           -1.721        |                
   |            3p              6.000           -1.028        |                
   |            4s              2.000           -0.142        |                
   |                                                          |                
   |                 Pseudopotential Definition               |                
   |        Beta     l      e      Rc     scheme   norm       |                
   |          1      0   -1.721   2.005     qc      0         |                
   |          2      0   -0.142   2.005     qc      0         |                
   |          3      0    0.250   2.005     qc      0         |                
   |          4      1   -1.028   2.005     qc      0         |                
   |          5      1    0.250   2.005     qc      0         |                
   |          6      2    0.000   2.005     qc      0         |                
   |          7      2    0.250   2.005     qc      0         |                
   |         loc     3    0.000   2.005     pn      0         |                
   |                                                          |                
   | Augmentation charge Rinner = 1.401                       |                
   | Partial core correction Rc = 1.401                       |                
   ------------------------------------------------------------                
   | "3|2.0|7|8|9|30U:40:31:32"                               |                
   ------------------------------------------------------------                
   |      Author: Chris J. Pickard, Cambridge University      |                
   ============================================================                
 
 Pseudo atomic calculation performed for O 2s2 2p4
 
 Converged in 24 iterations to a total energy of -431.6155 eV
 
 
 Pseudo atomic calculation performed for Ca 3s2 3p6 4s2
 
 Converged in 19 iterations to a total energy of -1001.6194 eV
 
 Calculation not parallelised.
 Warning: parameters_output - missing parameters file, using defaults

 ************************************ Title ************************************
 

 ***************************** General Parameters ******************************
  
 output verbosity                               : normal  (1)
 write checkpoint data to                       : ../Mg0Ca100.check
 type of calculation                            : single point energy
 stress calculation                             : off
 density difference calculation                 : off
 electron localisation func (ELF) calculation   : off
 Hirshfeld analysis                             : off
 unlimited duration calculation
 timing information                             : on
 memory usage estimate                          : on
 write final potential to formatted file        : off
 write final density to formatted file          : off
 write BibTeX reference list                    : on
 write OTFG pseudopotential files               : on
 checkpoint writing                             : both castep_bin and check files
 random number generator seed                   : randomised (143148356)

 *********************** Exchange-Correlation Parameters ***********************
  
 using functional                               : Local Density Approximation
 DFT+D: Semi-empirical dispersion correction    : off

 ************************* Pseudopotential Parameters **************************
  
 pseudopotential representation                 : reciprocal space
 <beta|phi> representation                      : reciprocal space
 spin-orbit coupling                            : off

 **************************** Basis Set Parameters *****************************
  
 basis set accuracy                             : FINE
 finite basis set correction                    : none

 **************************** Electronic Parameters ****************************
  
 number of  electrons                           :  64.00    
 net charge of system                           :  0.000    
 treating system as non-spin-polarized
 number of bands                                :         38

 ********************* Electronic Minimization Parameters **********************
  
 Method: Treating system as metallic with density mixing treatment of electrons,
         and number of  SD  steps               :          1
         and number of  CG  steps               :          4
  
 total energy / atom convergence tol.           : 0.1000E-04   eV
 eigen-energy convergence tolerance             : 0.1000E-05   eV
 max force / atom convergence tol.              : ignored
 periodic dipole correction                     : NONE

 ************************** Density Mixing Parameters **************************
  
 density-mixing scheme                          : Broyden
 max. length of mixing history                  :         20

 *********************** Population Analysis Parameters ************************
  
 Population analysis with cutoff                :  3.000       A

 *******************************************************************************
  
 
                           -------------------------------
                                      Unit Cell
                           -------------------------------
        Real Lattice(A)                      Reciprocal Lattice(1/A)
   4.2000000   0.0000000   0.0000000        1.4959965   0.0000000   0.0000000
   0.0000000   4.2000000   0.0000000        0.0000000   1.4959965   0.0000000
   0.0000000   0.0000000   4.2000000        0.0000000   0.0000000   1.4959965
 
                       Lattice parameters(A)       Cell Angles
                    a =    4.200000          alpha =   90.000000
                    b =    4.200000          beta  =   90.000000
                    c =    4.200000          gamma =   90.000000
 
                       Current cell volume =   74.088000       A**3
 
                           -------------------------------
                                     Cell Contents
                           -------------------------------
                         Total number of ions in cell =    8
                      Total number of species in cell =    2
                        Max number of any one species =    4
 
            xxxxxxxxxxxxxxxxxxxxxxxxxxxxxxxxxxxxxxxxxxxxxxxxxxxxxxxxxxxx
            x  Element    Atom        Fractional coordinates of atoms  x
            x            Number           u          v          w      x
            x----------------------------------------------------------x
            x  O            1         0.500000   0.500000   0.500000   x 
            x  O            2         0.500000   0.000000   0.000000   x 
            x  O            3         0.000000   0.500000   0.000000   x 
            x  O            4         0.000000   0.000000   0.500000   x 
            x  Ca           1         0.000000   0.000000   0.000000   x 
            x  Ca           2         0.000000   0.500000   0.500000   x 
            x  Ca           3         0.500000   0.000000   0.500000   x 
            x  Ca           4         0.500000   0.500000   0.000000   x 
            xxxxxxxxxxxxxxxxxxxxxxxxxxxxxxxxxxxxxxxxxxxxxxxxxxxxxxxxxxxx
 
 
                         No user defined ionic velocities
 
                           -------------------------------
                                   Details of Species
                           -------------------------------
 
                               Mass of species in AMU
                                    O   15.9994000
                                    Ca   40.0780000
 
                          Electric Quadrupole Moment (Barn)
                                    O   -0.0255800 Isotope 17
                                    Ca   -0.0408000 Isotope 43
 
                          Files used for pseudopotentials:
                                    O 2|1.1|15|18|20|20:21(qc=7)
                                    Ca 3|2.0|7|8|9|30U:40:31:32
 
                           -------------------------------
                              k-Points For BZ Sampling
                           -------------------------------
                       MP grid size for SCF calculation is  3  3  3
                            with an offset of   0.000  0.000  0.000
                       Number of kpoints used =             4
 
                           -------------------------------
                               Symmetry and Constraints
                           -------------------------------
 
                      Cell is a supercell containing 4 primitive cells
                      Maximum deviation from symmetry = 0.139888E-14     ANG
 
                      Number of symmetry operations   =         192
                      Number of ionic constraints     =           3
                      Point group of crystal =    32: Oh, m-3m, 4/m -3 2/m
                      Space group of crystal =   225: Fm-3m, -F 4 2 3
 
             Set iprint > 1 for details on symmetry rotations/translations
 
                         Centre of mass is constrained
             Set iprint > 1 for details of linear ionic constraints
 
                         Number of cell constraints= 5
                         Cell constraints are:  1 1 1 0 0 0
 
                         External pressure/stress (GPa)
                          0.00000   0.00000   0.00000
                                    0.00000   0.00000
                                              0.00000
  
+---------------- MEMORY AND SCRATCH DISK ESTIMATES PER PROCESS --------------+
|                                                     Memory          Disk    |
| Baseline code, static data and system overhead      146.0 MB         0.0 MB |
| BLAS internal memory storage                          0.0 MB         0.0 MB |
| Model and support data                               43.4 MB        48.2 MB |
| Electronic energy minimisation requirements          14.4 MB         0.0 MB |
| Force calculation requirements                        3.5 MB         0.0 MB |
|                                               ----------------------------- |
| Approx. total storage required per process          203.8 MB        48.2 MB |
|                                                                             |
| Requirements will fluctuate during execution and may exceed these estimates |
+-----------------------------------------------------------------------------+
------------------------------------------------------------------------ <-- SCF
SCF loop      Energy           Fermi           Energy gain       Timer   <-- SCF
                               energy          per atom          (sec)   <-- SCF
------------------------------------------------------------------------ <-- SCF
Initial  -4.69989473E+003  0.00000000E+000                         7.15  <-- SCF
      1  -5.64004774E+003  1.15723148E+001   1.17519127E+002       7.99  <-- SCF
      2  -5.78961988E+003  6.22270816E+000   1.86965168E+001       8.69  <-- SCF
      3  -5.79149572E+003  6.06401890E+000   2.34480739E-001       9.37  <-- SCF
      4  -5.79145764E+003  1.01842770E+001  -4.76026234E-003      10.13  <-- SCF
      5  -5.78401488E+003  8.51277153E+000  -9.30344994E-001      10.87  <-- SCF
      6  -5.78396991E+003  8.74258508E+000  -5.62081181E-003      11.66  <-- SCF
      7  -5.78396314E+003  8.84696707E+000  -8.46421478E-004      12.40  <-- SCF
      8  -5.78396261E+003  8.82954189E+000  -6.64547938E-005      13.15  <-- SCF
      9  -5.78396262E+003  8.83114805E+000   8.76638807E-007      13.72  <-- SCF
     10  -5.78396262E+003  8.83177676E+000   9.60699493E-008      14.23  <-- SCF
     11  -5.78396262E+003  8.83173986E+000   4.43000129E-009      14.72  <-- SCF
------------------------------------------------------------------------ <-- SCF
 
Final energy, E             =  -5783.962618103     eV
Final free energy (E-TS)    =  -5783.962618103     eV
(energies not corrected for finite basis set)
 
NB est. 0K energy (E-0.5TS)      =  -5783.962618103     eV
 

Writing analysis data to ../Mg0Ca100.castep_bin

Writing model to ../Mg0Ca100.check
 
 ***************** Symmetrised Forces *****************
 *                                                    *
 *            Cartesian components (eV/A)             *
 * -------------------------------------------------- *
 *                   x            y            z      *
 *                                                    *
 * O         1      0.00000      0.00000      0.00000 *
 * O         2      0.00000      0.00000      0.00000 *
 * O         3      0.00000      0.00000      0.00000 *
 * O         4      0.00000      0.00000      0.00000 *
 * Ca        1      0.00000      0.00000      0.00000 *
 * Ca        2      0.00000      0.00000      0.00000 *
 * Ca        3      0.00000      0.00000      0.00000 *
 * Ca        4      0.00000      0.00000      0.00000 *
 *                                                    *
 ******************************************************
 
 Pseudo atomic calculation performed for O 2s2 2p4
 
 Converged in 24 iterations to a total energy of -431.6155 eV
 
 
 Pseudo atomic calculation performed for Ca 3s2 3p6 4s2
 
 Converged in 19 iterations to a total energy of -1001.6194 eV
 
Charge spilling parameter for spin component 1 = 0.17%
 
     Atomic Populations (Mulliken)
     -----------------------------
Species   Ion     s      p      d      f     Total  Charge (e)
==============================================================
  O        1     1.83   5.04   0.00   0.00   6.87    -0.87
  O        2     1.83   5.04   0.00   0.00   6.87    -0.87
  O        3     1.83   5.04   0.00   0.00   6.87    -0.87
  O        4     1.83   5.04   0.00   0.00   6.87    -0.87
  Ca       1     2.15   5.99   0.99   0.00   9.13     0.87
  Ca       2     2.15   5.99   0.99   0.00   9.13     0.87
  Ca       3     2.15   5.99   0.99   0.00   9.13     0.87
  Ca       4     2.15   5.99   0.99   0.00   9.13     0.87
==============================================================
 
            Bond              Population      Length (A)
============================================================
          O 4 -- Ca 3              0.19        2.10000
          O 4 -- Ca 2              0.19        2.10000
          O 4 -- Ca 1              0.19        2.10000
          O 3 -- Ca 4              0.19        2.10000
          O 3 -- Ca 2              0.19        2.10000
          O 3 -- Ca 1              0.19        2.10000
          O 2 -- Ca 4              0.19        2.10000
          O 2 -- Ca 3              0.19        2.10000
          O 2 -- Ca 1              0.19        2.10000
          O 1 -- Ca 4              0.19        2.10000
          O 1 -- Ca 3              0.19        2.10000
          O 1 -- Ca 2              0.19        2.10000
         Ca 3 -- Ca 4             -0.25        2.96985
         Ca 2 -- Ca 4             -0.25        2.96985
         Ca 2 -- Ca 3             -0.25        2.96985
         Ca 1 -- Ca 4             -0.25        2.96985
         Ca 1 -- Ca 3             -0.25        2.96985
         Ca 1 -- Ca 2             -0.25        2.96985
          O 3 -- O 4              -0.04        2.96985
          O 2 -- O 4              -0.04        2.96985
          O 2 -- O 3              -0.04        2.96985
          O 1 -- O 4              -0.04        2.96985
          O 1 -- O 3              -0.04        2.96985
          O 1 -- O 2              -0.04        2.96985
============================================================
 

Writing analysis data to ../Mg0Ca100.castep_bin

Writing model to ../Mg0Ca100.check
 
 A BibTeX formatted list of references used in this run has been written to 
 ../Mg0Ca100.bib
 
Initialisation time =      6.17 s
Calculation time    =     10.07 s
Finalisation time   =      3.17 s
Total time          =     19.41 s
Peak Memory Use     = 520756 kB
