 +-------------------------------------------------+
 |                                                 |
 |      CCC   AA    SSS  TTTTT  EEEEE  PPPP        |
 |     C     A  A  S       T    E      P   P       |
 |     C     AAAA   SS     T    EEE    PPPP        |
 |     C     A  A     S    T    E      P           |
 |      CCC  A  A  SSS     T    EEEEE  P           |
 |                                                 |
 +-------------------------------------------------+
 |                                                 |
 | Welcome to Academic Release CASTEP version 9.0  |
 | Ab Initio Total Energy Program                  |
 |                                                 |
 | Authors:                                        |
 | M. Segall, M. Probert, C. Pickard, P. Hasnip,   |
 | S. Clark, K. Refson, J. R. Yates, M. Payne      |
 |                                                 |
 | Contributors:                                   |
 | P. Lindan, P. Haynes, J. White, V. Milman,      |
 | N. Govind, M. Gibson, P. Tulip, V. Cocula,      |
 | B. Montanari, D. Quigley, M. Glover,            |
 | L. Bernasconi, A. Perlov, M. Plummer,           |
 | E. McNellis, J. Meyer, J. Gale, D. Jochym       |
 | J. Aarons, B. Walker, R. Gillen, D. Jones       |
 | T. Green, I. J. Bush, C. J. Armstrong,          |
 | E. J. Higgins, M. D. Hodgson                    |
 |                                                 |
 | Copyright (c) 2000 - 2015                       |
 |                                                 |
 |     Distributed under the terms of an           |
 |     Agreement between the United Kingdom        |
 |     Car-Parrinello (UKCP) Consortium,           |
 |     Daresbury Laboratory and Accelrys, Inc.     |
 |                                                 |
 | Please cite                                     |
 |                                                 |
 |     "First principles methods using CASTEP"     |
 |                                                 |
 |         Zeitschrift fuer Kristallographie       |
 |           220(5-6) pp. 567-570 (2005)           |
 |                                                 |
 | S. J. Clark, M. D. Segall, C. J. Pickard,       |
 | P. J. Hasnip, M. J. Probert, K. Refson,         |
 | M. C. Payne                                     |
 |                                                 |
 |       in all publications arising from          |
 |              your use of CASTEP                 |
 |                                                 |
 +-------------------------------------------------+
 
 
 Compiled for linux_x86_64_ifort12 on Fri, 09 Oct 2015 16:14:59 +0100
 from code version 01cdeb6dcbec+  Thu, 01 Oct 2015 17:06:55 +0100
 Compiler: Intel Fortran 12.1.5.339; Optimisation: fast
 MATHLIBS: Intel MKL(11.0.5) (LAPACK version 3.4.1)
 FFT Lib : default
 Fundamental constants values: CODATA 2010
 
 Run started: Wed, 20 Apr 2016 14:26:03 +0100
 Warning: parameters_read - missing parameters file, using defaults
 
 Atomic calculation performed for O: 1s2 2s2 2p4
 
 Converged in 60 iterations to an ae energy of -2027.926 eV
 
   ============================================================                
   | Pseudopotential Report - Date of generation 20-04-2016   |                
   ------------------------------------------------------------                
   | Element: O Ionic charge:  6.00 Level of theory: LDA      |                
   | Atomic Solver: Koelling-Harmon                           |                
   |                                                          |                
   |               Reference Electronic Structure             |                
   |         Orbital         Occupation         Energy        |                
   |            2s              2.000           -0.873        |                
   |            2p              4.000           -0.338        |                
   |                                                          |                
   |                 Pseudopotential Definition               |                
   |        Beta     l      e      Rc     scheme   norm       |                
   |          1      0   -0.873   1.100     qc      0         |                
   |          2      0    0.250   1.100     qc      0         |                
   |          3      1   -0.338   1.100     qc      0         |                
   |          4      1    0.250   1.100     qc      0         |                
   |         loc     2    0.000   1.100     pn      0         |                
   |                                                          |                
   | Augmentation charge Rinner = 0.769                       |                
   | Partial core correction Rc = 0.769                       |                
   ------------------------------------------------------------                
   | "2|1.1|15|18|20|20:21(qc=7)"                             |                
   ------------------------------------------------------------                
   |      Author: Chris J. Pickard, Cambridge University      |                
   ============================================================                
 
 Atomic calculation performed for Mg: 1s2 2s2 2p6 3s2
 
 Converged in 47 iterations to an ae energy of -5427.407 eV
 
   ============================================================                
   | Pseudopotential Report - Date of generation 20-04-2016   |                
   ------------------------------------------------------------                
   | Element: Mg Ionic charge: 10.00 Level of theory: LDA     |                
   | Atomic Solver: Koelling-Harmon                           |                
   |                                                          |                
   |               Reference Electronic Structure             |                
   |         Orbital         Occupation         Energy        |                
   |            2s              2.000           -2.914        |                
   |            2p              6.000           -1.717        |                
   |            3s              2.000           -0.176        |                
   |                                                          |                
   |                 Pseudopotential Definition               |                
   |        Beta     l      e      Rc     scheme   norm       |                
   |          1      0   -2.914   1.804     qc      0         |                
   |          2      0   -0.176   1.804     qc      0         |                
   |          3      0    0.250   1.804     qc      0         |                
   |          4      1   -1.717   1.804     qc      0         |                
   |          5      1    0.250   1.804     qc      0         |                
   |          6      2    0.000   1.804     qc      0         |                
   |          7      2    0.250   1.804     qc      0         |                
   |         loc     3    0.000   1.804     pn      0         |                
   |                                                          |                
   | Augmentation charge Rinner = 1.261                       |                
   | Partial core correction Rc = 1.261                       |                
   ------------------------------------------------------------                
   | "3|1.8|7|8|9|20U:30:21:32"                               |                
   ------------------------------------------------------------                
   |      Author: Chris J. Pickard, Cambridge University      |                
   ============================================================                
 
 Atomic calculation performed for Ca: 1s2 2s2 2p6 3s2 3p6 4s2
 
 Converged in 44 iterations to an ae energy of -18468.059 eV
 
 +-------------------------------------------------+
 |                                                 |
 |      CCC   AA    SSS  TTTTT  EEEEE  PPPP        |
 |     C     A  A  S       T    E      P   P       |
 |     C     AAAA   SS     T    EEE    PPPP        |
 |     C     A  A     S    T    E      P           |
 |      CCC  A  A  SSS     T    EEEEE  P           |
 |                                                 |
 +-------------------------------------------------+
 |                                                 |
 | Welcome to Academic Release CASTEP version 9.0  |
 | Ab Initio Total Energy Program                  |
 |                                                 |
 | Authors:                                        |
 | M. Segall, M. Probert, C. Pickard, P. Hasnip,   |
 | S. Clark, K. Refson, J. R. Yates, M. Payne      |
 |                                                 |
 | Contributors:                                   |
 | P. Lindan, P. Haynes, J. White, V. Milman,      |
 | N. Govind, M. Gibson, P. Tulip, V. Cocula,      |
 | B. Montanari, D. Quigley, M. Glover,            |
 | L. Bernasconi, A. Perlov, M. Plummer,           |
 | E. McNellis, J. Meyer, J. Gale, D. Jochym       |
 | J. Aarons, B. Walker, R. Gillen, D. Jones       |
 | T. Green, I. J. Bush, C. J. Armstrong,          |
 | E. J. Higgins, M. D. Hodgson                    |
 |                                                 |
 | Copyright (c) 2000 - 2015                       |
 |                                                 |
 |     Distributed under the terms of an           |
 |     Agreement between the United Kingdom        |
 |     Car-Parrinello (UKCP) Consortium,           |
 |     Daresbury Laboratory and Accelrys, Inc.     |
 |                                                 |
 | Please cite                                     |
 |                                                 |
 |     "First principles methods using CASTEP"     |
 |                                                 |
 |         Zeitschrift fuer Kristallographie       |
 |           220(5-6) pp. 567-570 (2005)           |
 |                                                 |
 | S. J. Clark, M. D. Segall, C. J. Pickard,       |
 | P. J. Hasnip, M. J. Probert, K. Refson,         |
 | M. C. Payne                                     |
 |                                                 |
 |       in all publications arising from          |
 |              your use of CASTEP                 |
 |                                                 |
 +-------------------------------------------------+
 
 
 Compiled for linux_x86_64_ifort12 on Fri, 09 Oct 2015 16:14:59 +0100
 from code version 01cdeb6dcbec+  Thu, 01 Oct 2015 17:06:55 +0100
 Compiler: Intel Fortran 12.1.5.339; Optimisation: fast
 MATHLIBS: Intel MKL(11.0.5) (LAPACK version 3.4.1)
 FFT Lib : default
 Fundamental constants values: CODATA 2010
 
 Run started: Wed, 20 Apr 2016 14:27:15 +0100
 Warning: parameters_read - missing parameters file, using defaults
 
 Atomic calculation performed for O: 1s2 2s2 2p4
 
 Converged in 60 iterations to an ae energy of -2027.926 eV
 
   ============================================================                
   | Pseudopotential Report - Date of generation 20-04-2016   |                
   ------------------------------------------------------------                
   | Element: O Ionic charge:  6.00 Level of theory: LDA      |                
   | Atomic Solver: Koelling-Harmon                           |                
   |                                                          |                
   |               Reference Electronic Structure             |                
   |         Orbital         Occupation         Energy        |                
   |            2s              2.000           -0.873        |                
   |            2p              4.000           -0.338        |                
   |                                                          |                
   |                 Pseudopotential Definition               |                
   |        Beta     l      e      Rc     scheme   norm       |                
   |          1      0   -0.873   1.100     qc      0         |                
   |          2      0    0.250   1.100     qc      0         |                
   |          3      1   -0.338   1.100     qc      0         |                
   |          4      1    0.250   1.100     qc      0         |                
   |         loc     2    0.000   1.100     pn      0         |                
   |                                                          |                
   | Augmentation charge Rinner = 0.769                       |                
   | Partial core correction Rc = 0.769                       |                
   ------------------------------------------------------------                
   | "2|1.1|15|18|20|20:21(qc=7)"                             |                
   ------------------------------------------------------------                
   |      Author: Chris J. Pickard, Cambridge University      |                
   ============================================================                
 
 Atomic calculation performed for Mg: 1s2 2s2 2p6 3s2
 
 Converged in 47 iterations to an ae energy of -5427.407 eV
 
   ============================================================                
   | Pseudopotential Report - Date of generation 20-04-2016   |                
   ------------------------------------------------------------                
   | Element: Mg Ionic charge: 10.00 Level of theory: LDA     |                
   | Atomic Solver: Koelling-Harmon                           |                
   |                                                          |                
   |               Reference Electronic Structure             |                
   |         Orbital         Occupation         Energy        |                
   |            2s              2.000           -2.914        |                
   |            2p              6.000           -1.717        |                
   |            3s              2.000           -0.176        |                
   |                                                          |                
   |                 Pseudopotential Definition               |                
   |        Beta     l      e      Rc     scheme   norm       |                
   |          1      0   -2.914   1.804     qc      0         |                
   |          2      0   -0.176   1.804     qc      0         |                
   |          3      0    0.250   1.804     qc      0         |                
   |          4      1   -1.717   1.804     qc      0         |                
   |          5      1    0.250   1.804     qc      0         |                
   |          6      2    0.000   1.804     qc      0         |                
   |          7      2    0.250   1.804     qc      0         |                
   |         loc     3    0.000   1.804     pn      0         |                
   |                                                          |                
   | Augmentation charge Rinner = 1.261                       |                
   | Partial core correction Rc = 1.261                       |                
   ------------------------------------------------------------                
   | "3|1.8|7|8|9|20U:30:21:32"                               |                
   ------------------------------------------------------------                
   |      Author: Chris J. Pickard, Cambridge University      |                
   ============================================================                
 
 Atomic calculation performed for Ca: 1s2 2s2 2p6 3s2 3p6 4s2
 
 Converged in 44 iterations to an ae energy of -18468.059 eV
 
   ============================================================                
   | Pseudopotential Report - Date of generation 20-04-2016   |                
   ------------------------------------------------------------                
   | Element: Ca Ionic charge: 10.00 Level of theory: LDA     |                
   | Atomic Solver: Koelling-Harmon                           |                
   |                                                          |                
   |               Reference Electronic Structure             |                
   |         Orbital         Occupation         Energy        |                
   |            3s              2.000           -1.721        |                
   |            3p              6.000           -1.028        |                
   |            4s              2.000           -0.142        |                
   |                                                          |                
   |                 Pseudopotential Definition               |                
   |        Beta     l      e      Rc     scheme   norm       |                
   |          1      0   -1.721   2.005     qc      0         |                
   |          2      0   -0.142   2.005     qc      0         |                
   |          3      0    0.250   2.005     qc      0         |                
   |          4      1   -1.028   2.005     qc      0         |                
   |          5      1    0.250   2.005     qc      0         |                
   |          6      2    0.000   2.005     qc      0         |                
   |          7      2    0.250   2.005     qc      0         |                
   |         loc     3    0.000   2.005     pn      0         |                
   |                                                          |                
   | Augmentation charge Rinner = 1.401                       |                
   | Partial core correction Rc = 1.401                       |                
   ------------------------------------------------------------                
   | "3|2.0|7|8|9|30U:40:31:32"                               |                
   ------------------------------------------------------------                
   |      Author: Chris J. Pickard, Cambridge University      |                
   ============================================================                
 +-------------------------------------------------+
 |                                                 |
 |      CCC   AA    SSS  TTTTT  EEEEE  PPPP        |
 |     C     A  A  S       T    E      P   P       |
 |     C     AAAA   SS     T    EEE    PPPP        |
 |     C     A  A     S    T    E      P           |
 |      CCC  A  A  SSS     T    EEEEE  P           |
 |                                                 |
 +-------------------------------------------------+
 |                                                 |
 | Welcome to Academic Release CASTEP version 9.0  |
 | Ab Initio Total Energy Program                  |
 |                                                 |
 | Authors:                                        |
 | M. Segall, M. Probert, C. Pickard, P. Hasnip,   |
 | S. Clark, K. Refson, J. R. Yates, M. Payne      |
 |                                                 |
 | Contributors:                                   |
 | P. Lindan, P. Haynes, J. White, V. Milman,      |
 | N. Govind, M. Gibson, P. Tulip, V. Cocula,      |
 | B. Montanari, D. Quigley, M. Glover,            |
 | L. Bernasconi, A. Perlov, M. Plummer,           |
 | E. McNellis, J. Meyer, J. Gale, D. Jochym       |
 | J. Aarons, B. Walker, R. Gillen, D. Jones       |
 | T. Green, I. J. Bush, C. J. Armstrong,          |
 | E. J. Higgins, M. D. Hodgson                    |
 |                                                 |
 | Copyright (c) 2000 - 2015                       |
 |                                                 |
 |     Distributed under the terms of an           |
 |     Agreement between the United Kingdom        |
 |     Car-Parrinello (UKCP) Consortium,           |
 |     Daresbury Laboratory and Accelrys, Inc.     |
 |                                                 |
 | Please cite                                     |
 |                                                 |
 |     "First principles methods using CASTEP"     |
 |                                                 |
 |         Zeitschrift fuer Kristallographie       |
 |           220(5-6) pp. 567-570 (2005)           |
 |                                                 |
 | S. J. Clark, M. D. Segall, C. J. Pickard,       |
 | P. J. Hasnip, M. J. Probert, K. Refson,         |
 | M. C. Payne                                     |
 |                                                 |
 |       in all publications arising from          |
 |              your use of CASTEP                 |
 |                                                 |
 +-------------------------------------------------+
 
 
 Compiled for linux_x86_64_ifort12 on Fri, 09 Oct 2015 16:14:59 +0100
 from code version 01cdeb6dcbec+  Thu, 01 Oct 2015 17:06:55 +0100
 Compiler: Intel Fortran 12.1.5.339; Optimisation: fast
 MATHLIBS: Intel MKL(11.0.5) (LAPACK version 3.4.1)
 FFT Lib : default
 Fundamental constants values: CODATA 2010
 
 Run started: Wed, 20 Apr 2016 14:30:54 +0100
 Warning: parameters_read - missing parameters file, using defaults
 
 Atomic calculation performed for O: 1s2 2s2 2p4
 
 Converged in 60 iterations to an ae energy of -2027.926 eV
 
   ============================================================                
   | Pseudopotential Report - Date of generation 20-04-2016   |                
   ------------------------------------------------------------                
   | Element: O Ionic charge:  6.00 Level of theory: LDA      |                
   | Atomic Solver: Koelling-Harmon                           |                
   |                                                          |                
   |               Reference Electronic Structure             |                
   |         Orbital         Occupation         Energy        |                
   |            2s              2.000           -0.873        |                
   |            2p              4.000           -0.338        |                
   |                                                          |                
   |                 Pseudopotential Definition               |                
   |        Beta     l      e      Rc     scheme   norm       |                
   |          1      0   -0.873   1.100     qc      0         |                
   |          2      0    0.250   1.100     qc      0         |                
   |          3      1   -0.338   1.100     qc      0         |                
   |          4      1    0.250   1.100     qc      0         |                
   |         loc     2    0.000   1.100     pn      0         |                
   |                                                          |                
   | Augmentation charge Rinner = 0.769                       |                
   | Partial core correction Rc = 0.769                       |                
   ------------------------------------------------------------                
   | "2|1.1|15|18|20|20:21(qc=7)"                             |                
   ------------------------------------------------------------                
   |      Author: Chris J. Pickard, Cambridge University      |                
   ============================================================                
 
 Atomic calculation performed for Mg: 1s2 2s2 2p6 3s2
 
 Converged in 47 iterations to an ae energy of -5427.407 eV
 
   ============================================================                
   | Pseudopotential Report - Date of generation 20-04-2016   |                
   ------------------------------------------------------------                
   | Element: Mg Ionic charge: 10.00 Level of theory: LDA     |                
   | Atomic Solver: Koelling-Harmon                           |                
   |                                                          |                
   |               Reference Electronic Structure             |                
   |         Orbital         Occupation         Energy        |                
   |            2s              2.000           -2.914        |                
   |            2p              6.000           -1.717        |                
   |            3s              2.000           -0.176        |                
   |                                                          |                
   |                 Pseudopotential Definition               |                
   |        Beta     l      e      Rc     scheme   norm       |                
   |          1      0   -2.914   1.804     qc      0         |                
   |          2      0   -0.176   1.804     qc      0         |                
   |          3      0    0.250   1.804     qc      0         |                
   |          4      1   -1.717   1.804     qc      0         |                
   |          5      1    0.250   1.804     qc      0         |                
   |          6      2    0.000   1.804     qc      0         |                
   |          7      2    0.250   1.804     qc      0         |                
   |         loc     3    0.000   1.804     pn      0         |                
   |                                                          |                
   | Augmentation charge Rinner = 1.261                       |                
   | Partial core correction Rc = 1.261                       |                
   ------------------------------------------------------------                
   | "3|1.8|7|8|9|20U:30:21:32"                               |                
   ------------------------------------------------------------                
   |      Author: Chris J. Pickard, Cambridge University      |                
   ============================================================                
 
 Atomic calculation performed for Ca: 1s2 2s2 2p6 3s2 3p6 4s2
 
 Converged in 44 iterations to an ae energy of -18468.059 eV
 
 +-------------------------------------------------+
 |                                                 |
 |      CCC   AA    SSS  TTTTT  EEEEE  PPPP        |
 |     C     A  A  S       T    E      P   P       |
 |     C     AAAA   SS     T    EEE    PPPP        |
 |     C     A  A     S    T    E      P           |
 |      CCC  A  A  SSS     T    EEEEE  P           |
 |                                                 |
 +-------------------------------------------------+
 |                                                 |
 | Welcome to Academic Release CASTEP version 9.0  |
 | Ab Initio Total Energy Program                  |
 |                                                 |
 | Authors:                                        |
 | M. Segall, M. Probert, C. Pickard, P. Hasnip,   |
 | S. Clark, K. Refson, J. R. Yates, M. Payne      |
 |                                                 |
 | Contributors:                                   |
 | P. Lindan, P. Haynes, J. White, V. Milman,      |
 | N. Govind, M. Gibson, P. Tulip, V. Cocula,      |
 | B. Montanari, D. Quigley, M. Glover,            |
 | L. Bernasconi, A. Perlov, M. Plummer,           |
 | E. McNellis, J. Meyer, J. Gale, D. Jochym       |
 | J. Aarons, B. Walker, R. Gillen, D. Jones       |
 | T. Green, I. J. Bush, C. J. Armstrong,          |
 | E. J. Higgins, M. D. Hodgson                    |
 |                                                 |
 | Copyright (c) 2000 - 2015                       |
 |                                                 |
 |     Distributed under the terms of an           |
 |     Agreement between the United Kingdom        |
 |     Car-Parrinello (UKCP) Consortium,           |
 |     Daresbury Laboratory and Accelrys, Inc.     |
 |                                                 |
 | Please cite                                     |
 |                                                 |
 |     "First principles methods using CASTEP"     |
 |                                                 |
 |         Zeitschrift fuer Kristallographie       |
 |           220(5-6) pp. 567-570 (2005)           |
 |                                                 |
 | S. J. Clark, M. D. Segall, C. J. Pickard,       |
 | P. J. Hasnip, M. J. Probert, K. Refson,         |
 | M. C. Payne                                     |
 |                                                 |
 |       in all publications arising from          |
 |              your use of CASTEP                 |
 |                                                 |
 +-------------------------------------------------+
 
 
 Compiled for linux_x86_64_ifort12 on Fri, 09 Oct 2015 16:14:59 +0100
 from code version 01cdeb6dcbec+  Thu, 01 Oct 2015 17:06:55 +0100
 Compiler: Intel Fortran 12.1.5.339; Optimisation: fast
 MATHLIBS: Intel MKL(11.0.5) (LAPACK version 3.4.1)
 FFT Lib : default
 Fundamental constants values: CODATA 2010
 
 Run started: Wed, 20 Apr 2016 14:32:06 +0100
 Warning: parameters_read - missing parameters file, using defaults
 
 Atomic calculation performed for O: 1s2 2s2 2p4
 
 Converged in 60 iterations to an ae energy of -2027.926 eV
 
 +-------------------------------------------------+
 |                                                 |
 |      CCC   AA    SSS  TTTTT  EEEEE  PPPP        |
 |     C     A  A  S       T    E      P   P       |
 |     C     AAAA   SS     T    EEE    PPPP        |
 |     C     A  A     S    T    E      P           |
 |      CCC  A  A  SSS     T    EEEEE  P           |
 |                                                 |
 +-------------------------------------------------+
 |                                                 |
 | Welcome to Academic Release CASTEP version 9.0  |
 | Ab Initio Total Energy Program                  |
 |                                                 |
 | Authors:                                        |
 | M. Segall, M. Probert, C. Pickard, P. Hasnip,   |
 | S. Clark, K. Refson, J. R. Yates, M. Payne      |
 |                                                 |
 | Contributors:                                   |
 | P. Lindan, P. Haynes, J. White, V. Milman,      |
 | N. Govind, M. Gibson, P. Tulip, V. Cocula,      |
 | B. Montanari, D. Quigley, M. Glover,            |
 | L. Bernasconi, A. Perlov, M. Plummer,           |
 | E. McNellis, J. Meyer, J. Gale, D. Jochym       |
 | J. Aarons, B. Walker, R. Gillen, D. Jones       |
 | T. Green, I. J. Bush, C. J. Armstrong,          |
 | E. J. Higgins, M. D. Hodgson                    |
 |                                                 |
 | Copyright (c) 2000 - 2015                       |
 |                                                 |
 |     Distributed under the terms of an           |
 |     Agreement between the United Kingdom        |
 |     Car-Parrinello (UKCP) Consortium,           |
 |     Daresbury Laboratory and Accelrys, Inc.     |
 |                                                 |
 | Please cite                                     |
 |                                                 |
 |     "First principles methods using CASTEP"     |
 |                                                 |
 |         Zeitschrift fuer Kristallographie       |
 |           220(5-6) pp. 567-570 (2005)           |
 |                                                 |
 | S. J. Clark, M. D. Segall, C. J. Pickard,       |
 | P. J. Hasnip, M. J. Probert, K. Refson,         |
 | M. C. Payne                                     |
 |                                                 |
 |       in all publications arising from          |
 |              your use of CASTEP                 |
 |                                                 |
 +-------------------------------------------------+
 
 
 Compiled for linux_x86_64_ifort12 on Fri, 09 Oct 2015 16:14:59 +0100
 from code version 01cdeb6dcbec+  Thu, 01 Oct 2015 17:06:55 +0100
 Compiler: Intel Fortran 12.1.5.339; Optimisation: fast
 MATHLIBS: Intel MKL(11.0.5) (LAPACK version 3.4.1)
 FFT Lib : default
 Fundamental constants values: CODATA 2010
 
 Run started: Wed, 20 Apr 2016 14:45:45 +0100
 Warning: parameters_read - missing parameters file, using defaults
 
 Atomic calculation performed for O: 1s2 2s2 2p4
 
 Converged in 60 iterations to an ae energy of -2027.926 eV
 
   ============================================================                
   | Pseudopotential Report - Date of generation 20-04-2016   |                
   ------------------------------------------------------------                
   | Element: O Ionic charge:  6.00 Level of theory: LDA      |                
   | Atomic Solver: Koelling-Harmon                           |                
   |                                                          |                
   |               Reference Electronic Structure             |                
   |         Orbital         Occupation         Energy        |                
   |            2s              2.000           -0.873        |                
   |            2p              4.000           -0.338        |                
   |                                                          |                
   |                 Pseudopotential Definition               |                
   |        Beta     l      e      Rc     scheme   norm       |                
   |          1      0   -0.873   1.100     qc      0         |                
   |          2      0    0.250   1.100     qc      0         |                
   |          3      1   -0.338   1.100     qc      0         |                
   |          4      1    0.250   1.100     qc      0         |                
   |         loc     2    0.000   1.100     pn      0         |                
   |                                                          |                
   | Augmentation charge Rinner = 0.769                       |                
   | Partial core correction Rc = 0.769                       |                
   ------------------------------------------------------------                
   | "2|1.1|15|18|20|20:21(qc=7)"                             |                
   ------------------------------------------------------------                
   |      Author: Chris J. Pickard, Cambridge University      |                
   ============================================================                
 
 Atomic calculation performed for Mg: 1s2 2s2 2p6 3s2
 
 Converged in 47 iterations to an ae energy of -5427.407 eV
 
   ============================================================                
   | Pseudopotential Report - Date of generation 20-04-2016   |                
   ------------------------------------------------------------                
   | Element: Mg Ionic charge: 10.00 Level of theory: LDA     |                
   | Atomic Solver: Koelling-Harmon                           |                
   |                                                          |                
   |               Reference Electronic Structure             |                
   |         Orbital         Occupation         Energy        |                
   |            2s              2.000           -2.914        |                
   |            2p              6.000           -1.717        |                
   |            3s              2.000           -0.176        |                
   |                                                          |                
   |                 Pseudopotential Definition               |                
   |        Beta     l      e      Rc     scheme   norm       |                
   |          1      0   -2.914   1.804     qc      0         |                
   |          2      0   -0.176   1.804     qc      0         |                
   |          3      0    0.250   1.804     qc      0         |                
   |          4      1   -1.717   1.804     qc      0         |                
   |          5      1    0.250   1.804     qc      0         |                
   |          6      2    0.000   1.804     qc      0         |                
   |          7      2    0.250   1.804     qc      0         |                
   |         loc     3    0.000   1.804     pn      0         |                
   |                                                          |                
   | Augmentation charge Rinner = 1.261                       |                
   | Partial core correction Rc = 1.261                       |                
   ------------------------------------------------------------                
   | "3|1.8|7|8|9|20U:30:21:32"                               |                
   ------------------------------------------------------------                
   |      Author: Chris J. Pickard, Cambridge University      |                
   ============================================================                
 
 Atomic calculation performed for Ca: 1s2 2s2 2p6 3s2 3p6 4s2
 
 Converged in 44 iterations to an ae energy of -18468.059 eV
 
   ============================================================                
   | Pseudopotential Report - Date of generation 20-04-2016   |                
   ------------------------------------------------------------                
   | Element: Ca Ionic charge: 10.00 Level of theory: LDA     |                
   | Atomic Solver: Koelling-Harmon                           |                
   |                                                          |                
   |               Reference Electronic Structure             |                
   |         Orbital         Occupation         Energy        |                
   |            3s              2.000           -1.721        |                
   |            3p              6.000           -1.028        |                
   |            4s              2.000           -0.142        |                
   |                                                          |                
   |                 Pseudopotential Definition               |                
   |        Beta     l      e      Rc     scheme   norm       |                
   |          1      0   -1.721   2.005     qc      0         |                
   |          2      0   -0.142   2.005     qc      0         |                
   |          3      0    0.250   2.005     qc      0         |                
   |          4      1   -1.028   2.005     qc      0         |                
   |          5      1    0.250   2.005     qc      0         |                
   |          6      2    0.000   2.005     qc      0         |                
   |          7      2    0.250   2.005     qc      0         |                
   |         loc     3    0.000   2.005     pn      0         |                
   |                                                          |                
   | Augmentation charge Rinner = 1.401                       |                
   | Partial core correction Rc = 1.401                       |                
   ------------------------------------------------------------                
   | "3|2.0|7|8|9|30U:40:31:32"                               |                
   ------------------------------------------------------------                
   |      Author: Chris J. Pickard, Cambridge University      |                
   ============================================================                
 
 Pseudo atomic calculation performed for O 2s2 2p4
 
 Converged in 24 iterations to a total energy of -431.6155 eV
 
 
 Pseudo atomic calculation performed for Mg 2s2 2p6 3s2
 
 Converged in 20 iterations to a total energy of -1684.7622 eV
 
 
 Pseudo atomic calculation performed for Ca 3s2 3p6 4s2
 
 Converged in 19 iterations to a total energy of -1001.6194 eV
 
 Calculation not parallelised.
 Warning: parameters_output - missing parameters file, using defaults

 ************************************ Title ************************************
 

 ***************************** General Parameters ******************************
  
 output verbosity                               : normal  (1)
 write checkpoint data to                       : ../Mg25Ca75.check
 type of calculation                            : single point energy
 stress calculation                             : off
 density difference calculation                 : off
 electron localisation func (ELF) calculation   : off
 Hirshfeld analysis                             : off
 unlimited duration calculation
 timing information                             : on
 memory usage estimate                          : on
 write final potential to formatted file        : off
 write final density to formatted file          : off
 write BibTeX reference list                    : on
 write OTFG pseudopotential files               : on
 checkpoint writing                             : both castep_bin and check files
 random number generator seed                   : randomised (144545931)

 *********************** Exchange-Correlation Parameters ***********************
  
 using functional                               : Local Density Approximation
 DFT+D: Semi-empirical dispersion correction    : off

 ************************* Pseudopotential Parameters **************************
  
 pseudopotential representation                 : reciprocal space
 <beta|phi> representation                      : reciprocal space
 spin-orbit coupling                            : off

 **************************** Basis Set Parameters *****************************
  
 basis set accuracy                             : FINE
 finite basis set correction                    : none

 **************************** Electronic Parameters ****************************
  
 number of  electrons                           :  64.00    
 net charge of system                           :  0.000    
 treating system as non-spin-polarized
 number of bands                                :         38

 ********************* Electronic Minimization Parameters **********************
  
 Method: Treating system as metallic with density mixing treatment of electrons,
         and number of  SD  steps               :          1
         and number of  CG  steps               :          4
  
 total energy / atom convergence tol.           : 0.1000E-04   eV
 eigen-energy convergence tolerance             : 0.1000E-05   eV
 max force / atom convergence tol.              : ignored
 periodic dipole correction                     : NONE

 ************************** Density Mixing Parameters **************************
  
 density-mixing scheme                          : Broyden
 max. length of mixing history                  :         20

 *********************** Population Analysis Parameters ************************
  
 Population analysis with cutoff                :  3.000       A

 *******************************************************************************
  
 
                           -------------------------------
                                      Unit Cell
                           -------------------------------
        Real Lattice(A)                      Reciprocal Lattice(1/A)
   4.2000000   0.0000000   0.0000000        1.4959965   0.0000000   0.0000000
   0.0000000   4.2000000   0.0000000        0.0000000   1.4959965   0.0000000
   0.0000000   0.0000000   4.2000000        0.0000000   0.0000000   1.4959965
 
                       Lattice parameters(A)       Cell Angles
                    a =    4.200000          alpha =   90.000000
                    b =    4.200000          beta  =   90.000000
                    c =    4.200000          gamma =   90.000000
 
                       Current cell volume =   74.088000       A**3
 
                           -------------------------------
                                     Cell Contents
                           -------------------------------
                         Total number of ions in cell =    8
                      Total number of species in cell =    3
                        Max number of any one species =    4
 
            xxxxxxxxxxxxxxxxxxxxxxxxxxxxxxxxxxxxxxxxxxxxxxxxxxxxxxxxxxxx
            x  Element    Atom        Fractional coordinates of atoms  x
            x            Number           u          v          w      x
            x----------------------------------------------------------x
            x  O            1         0.500000   0.500000   0.500000   x 
            x  O            2         0.500000   0.000000   0.000000   x 
            x  O            3         0.000000   0.500000   0.000000   x 
            x  O            4         0.000000   0.000000   0.500000   x 
            x  Mg           1         0.500000   0.500000   0.000000   x 
            x  Ca           1         0.000000   0.000000   0.000000   x 
            x  Ca           2         0.000000   0.500000   0.500000   x 
            x  Ca           3         0.500000   0.000000   0.500000   x 
            xxxxxxxxxxxxxxxxxxxxxxxxxxxxxxxxxxxxxxxxxxxxxxxxxxxxxxxxxxxx
 
 
                         No user defined ionic velocities
 
                           -------------------------------
                                   Details of Species
                           -------------------------------
 
                               Mass of species in AMU
                                    O   15.9994000
                                    Mg   24.3050000
                                    Ca   40.0780000
 
                          Electric Quadrupole Moment (Barn)
                                    O   -0.0255800 Isotope 17
                                    Mg    0.1994000 Isotope 25
                                    Ca   -0.0408000 Isotope 43
 
                          Files used for pseudopotentials:
                                    O 2|1.1|15|18|20|20:21(qc=7)
                                    Mg 3|1.8|7|8|9|20U:30:21:32
                                    Ca 3|2.0|7|8|9|30U:40:31:32
 
                           -------------------------------
                              k-Points For BZ Sampling
                           -------------------------------
                       MP grid size for SCF calculation is  3  3  3
                            with an offset of   0.000  0.000  0.000
                       Number of kpoints used =             4
 
                           -------------------------------
                               Symmetry and Constraints
                           -------------------------------
 
                      Maximum deviation from symmetry = 0.940008E-15     ANG
 
                      Number of symmetry operations   =          48
                      Number of ionic constraints     =           3
                      Point group of crystal =    32: Oh, m-3m, 4/m -3 2/m
                      Space group of crystal =   221: Pm-3m, -P 4 2 3
 
             Set iprint > 1 for details on symmetry rotations/translations
 
                         Centre of mass is constrained
             Set iprint > 1 for details of linear ionic constraints
 
                         Number of cell constraints= 5
                         Cell constraints are:  1 1 1 0 0 0
 
                         External pressure/stress (GPa)
                          0.00000   0.00000   0.00000
                                    0.00000   0.00000
                                              0.00000
  
+---------------- MEMORY AND SCRATCH DISK ESTIMATES PER PROCESS --------------+
|                                                     Memory          Disk    |
| Baseline code, static data and system overhead      146.0 MB         0.0 MB |
| BLAS internal memory storage                          0.0 MB         0.0 MB |
| Model and support data                               59.0 MB        88.7 MB |
| Electronic energy minimisation requirements          14.4 MB         0.0 MB |
| Force calculation requirements                        3.5 MB         0.0 MB |
|                                               ----------------------------- |
| Approx. total storage required per process          219.4 MB        88.7 MB |
|                                                                             |
| Requirements will fluctuate during execution and may exceed these estimates |
+-----------------------------------------------------------------------------+
------------------------------------------------------------------------ <-- SCF
SCF loop      Energy           Fermi           Energy gain       Timer   <-- SCF
                               energy          per atom          (sec)   <-- SCF
------------------------------------------------------------------------ <-- SCF
Initial  -5.25261417E+003  0.00000000E+000                        11.76  <-- SCF
      1  -6.31340267E+003  1.13331044E+001   1.32598563E+002      12.58  <-- SCF
      2  -6.47380103E+003  5.30696306E+000   2.00497952E+001      13.24  <-- SCF
      3  -6.47592140E+003  5.33676487E+000   2.65045465E-001      13.91  <-- SCF
      4  -6.47439953E+003  9.53139800E+000  -1.90233214E-001      14.72  <-- SCF
      5  -6.46826068E+003  7.74724709E+000  -7.67355775E-001      15.55  <-- SCF
      6  -6.46817628E+003  7.90419702E+000  -1.05511538E-002      16.45  <-- SCF
      7  -6.46816586E+003  7.97902616E+000  -1.30164907E-003      17.28  <-- SCF
      8  -6.46815968E+003  8.02322530E+000  -7.73079038E-004      18.07  <-- SCF
      9  -6.46815951E+003  8.00884223E+000  -2.10808736E-005      18.82  <-- SCF
     10  -6.46815950E+003  8.01163125E+000  -1.49571157E-006      19.39  <-- SCF
     11  -6.46815950E+003  8.01237538E+000  -9.40467503E-008      19.93  <-- SCF
------------------------------------------------------------------------ <-- SCF
 
Final energy, E             =  -6468.159495903     eV
Final free energy (E-TS)    =  -6468.159495903     eV
(energies not corrected for finite basis set)
 
NB est. 0K energy (E-0.5TS)      =  -6468.159495903     eV
 

Writing analysis data to ../Mg25Ca75.castep_bin

Writing model to ../Mg25Ca75.check
 
 ***************** Symmetrised Forces *****************
 *                                                    *
 *            Cartesian components (eV/A)             *
 * -------------------------------------------------- *
 *                   x            y            z      *
 *                                                    *
 * O         1      0.00000      0.00000      0.00000 *
 * O         2      0.00000      0.00000      0.00000 *
 * O         3      0.00000      0.00000      0.00000 *
 * O         4      0.00000      0.00000      0.00000 *
 * Mg        1      0.00000      0.00000      0.00000 *
 * Ca        1      0.00000      0.00000      0.00000 *
 * Ca        2      0.00000      0.00000      0.00000 *
 * Ca        3      0.00000      0.00000      0.00000 *
 *                                                    *
 ******************************************************
 
 Pseudo atomic calculation performed for O 2s2 2p4
 
 Converged in 24 iterations to a total energy of -431.6155 eV
 
 
 Pseudo atomic calculation performed for Mg 2s2 2p6 3s2
 
 Converged in 20 iterations to a total energy of -1684.7622 eV
 
 
 Pseudo atomic calculation performed for Ca 3s2 3p6 4s2
 
 Converged in 19 iterations to a total energy of -1001.6194 eV
 
Charge spilling parameter for spin component 1 = 0.21%
 
     Atomic Populations (Mulliken)
     -----------------------------
Species   Ion     s      p      d      f     Total  Charge (e)
==============================================================
  O        1     1.83   5.09   0.00   0.00   6.92    -0.92
  O        2     1.83   5.09   0.00   0.00   6.92    -0.92
  O        3     1.83   5.09   0.00   0.00   6.92    -0.92
  O        4     1.83   5.04   0.00   0.00   6.87    -0.87
  Mg       1     2.36   6.74   0.00   0.00   9.10     0.90
  Ca       1     2.14   5.99   0.97   0.00   9.09     0.91
  Ca       2     2.14   5.99   0.97   0.00   9.09     0.91
  Ca       3     2.14   5.99   0.97   0.00   9.09     0.91
==============================================================
 
            Bond              Population      Length (A)
============================================================
          O 4 -- Ca 3              0.19        2.10000
          O 4 -- Ca 2              0.19        2.10000
          O 4 -- Ca 1              0.19        2.10000
          O 3 -- Ca 2              0.21        2.10000
          O 3 -- Ca 1              0.21        2.10000
          O 3 -- Mg 1              0.54        2.10000
          O 2 -- Ca 3              0.21        2.10000
          O 2 -- Ca 1              0.21        2.10000
          O 2 -- Mg 1              0.54        2.10000
          O 1 -- Ca 3              0.21        2.10000
          O 1 -- Ca 2              0.21        2.10000
          O 1 -- Mg 1              0.54        2.10000
         Ca 2 -- Ca 3             -0.33        2.96985
         Ca 1 -- Ca 3             -0.33        2.96985
         Ca 1 -- Ca 2             -0.33        2.96985
         Mg 1 -- Ca 3             -0.33        2.96985
         Mg 1 -- Ca 2             -0.33        2.96985
         Mg 1 -- Ca 1             -0.33        2.96985
          O 3 -- O 4              -0.04        2.96985
          O 2 -- O 4              -0.04        2.96985
          O 2 -- O 3              -0.10        2.96985
          O 1 -- O 4              -0.04        2.96985
          O 1 -- O 3              -0.10        2.96985
          O 1 -- O 2              -0.10        2.96985
============================================================
 

Writing analysis data to ../Mg25Ca75.castep_bin

Writing model to ../Mg25Ca75.check
 
 A BibTeX formatted list of references used in this run has been written to 
 ../Mg25Ca75.bib
 
Initialisation time =     10.02 s
Calculation time    =     11.55 s
Finalisation time   =      0.75 s
Total time          =     22.32 s
Peak Memory Use     = 622780 kB
 +-------------------------------------------------+
 |                                                 |
 |      CCC   AA    SSS  TTTTT  EEEEE  PPPP        |
 |     C     A  A  S       T    E      P   P       |
 |     C     AAAA   SS     T    EEE    PPPP        |
 |     C     A  A     S    T    E      P           |
 |      CCC  A  A  SSS     T    EEEEE  P           |
 |                                                 |
 +-------------------------------------------------+
 |                                                 |
 | Welcome to Academic Release CASTEP version 9.0  |
 | Ab Initio Total Energy Program                  |
 |                                                 |
 | Authors:                                        |
 | M. Segall, M. Probert, C. Pickard, P. Hasnip,   |
 | S. Clark, K. Refson, J. R. Yates, M. Payne      |
 |                                                 |
 | Contributors:                                   |
 | P. Lindan, P. Haynes, J. White, V. Milman,      |
 | N. Govind, M. Gibson, P. Tulip, V. Cocula,      |
 | B. Montanari, D. Quigley, M. Glover,            |
 | L. Bernasconi, A. Perlov, M. Plummer,           |
 | E. McNellis, J. Meyer, J. Gale, D. Jochym       |
 | J. Aarons, B. Walker, R. Gillen, D. Jones       |
 | T. Green, I. J. Bush, C. J. Armstrong,          |
 | E. J. Higgins, M. D. Hodgson                    |
 |                                                 |
 | Copyright (c) 2000 - 2015                       |
 |                                                 |
 |     Distributed under the terms of an           |
 |     Agreement between the United Kingdom        |
 |     Car-Parrinello (UKCP) Consortium,           |
 |     Daresbury Laboratory and Accelrys, Inc.     |
 |                                                 |
 | Please cite                                     |
 |                                                 |
 |     "First principles methods using CASTEP"     |
 |                                                 |
 |         Zeitschrift fuer Kristallographie       |
 |           220(5-6) pp. 567-570 (2005)           |
 |                                                 |
 | S. J. Clark, M. D. Segall, C. J. Pickard,       |
 | P. J. Hasnip, M. J. Probert, K. Refson,         |
 | M. C. Payne                                     |
 |                                                 |
 |       in all publications arising from          |
 |              your use of CASTEP                 |
 |                                                 |
 +-------------------------------------------------+
 
 
 Compiled for linux_x86_64_ifort12 on Fri, 09 Oct 2015 16:14:59 +0100
 from code version 01cdeb6dcbec+  Thu, 01 Oct 2015 17:06:55 +0100
 Compiler: Intel Fortran 12.1.5.339; Optimisation: fast
 MATHLIBS: Intel MKL(11.0.5) (LAPACK version 3.4.1)
 FFT Lib : default
 Fundamental constants values: CODATA 2010
 
 Run started: Wed, 20 Apr 2016 14:55:09 +0100
 Warning: parameters_read - missing parameters file, using defaults
 +-------------------------------------------------+
 |                                                 |
 |      CCC   AA    SSS  TTTTT  EEEEE  PPPP        |
 |     C     A  A  S       T    E      P   P       |
 |     C     AAAA   SS     T    EEE    PPPP        |
 |     C     A  A     S    T    E      P           |
 |      CCC  A  A  SSS     T    EEEEE  P           |
 |                                                 |
 +-------------------------------------------------+
 |                                                 |
 | Welcome to Academic Release CASTEP version 9.0  |
 | Ab Initio Total Energy Program                  |
 |                                                 |
 | Authors:                                        |
 | M. Segall, M. Probert, C. Pickard, P. Hasnip,   |
 | S. Clark, K. Refson, J. R. Yates, M. Payne      |
 |                                                 |
 | Contributors:                                   |
 | P. Lindan, P. Haynes, J. White, V. Milman,      |
 | N. Govind, M. Gibson, P. Tulip, V. Cocula,      |
 | B. Montanari, D. Quigley, M. Glover,            |
 | L. Bernasconi, A. Perlov, M. Plummer,           |
 | E. McNellis, J. Meyer, J. Gale, D. Jochym       |
 | J. Aarons, B. Walker, R. Gillen, D. Jones       |
 | T. Green, I. J. Bush, C. J. Armstrong,          |
 | E. J. Higgins, M. D. Hodgson                    |
 |                                                 |
 | Copyright (c) 2000 - 2015                       |
 |                                                 |
 |     Distributed under the terms of an           |
 |     Agreement between the United Kingdom        |
 |     Car-Parrinello (UKCP) Consortium,           |
 |     Daresbury Laboratory and Accelrys, Inc.     |
 |                                                 |
 | Please cite                                     |
 |                                                 |
 |     "First principles methods using CASTEP"     |
 |                                                 |
 |         Zeitschrift fuer Kristallographie       |
 |           220(5-6) pp. 567-570 (2005)           |
 |                                                 |
 | S. J. Clark, M. D. Segall, C. J. Pickard,       |
 | P. J. Hasnip, M. J. Probert, K. Refson,         |
 | M. C. Payne                                     |
 |                                                 |
 |       in all publications arising from          |
 |              your use of CASTEP                 |
 |                                                 |
 +-------------------------------------------------+
 
 
 Compiled for linux_x86_64_ifort12 on Fri, 09 Oct 2015 16:14:59 +0100
 from code version 01cdeb6dcbec+  Thu, 01 Oct 2015 17:06:55 +0100
 Compiler: Intel Fortran 12.1.5.339; Optimisation: fast
 MATHLIBS: Intel MKL(11.0.5) (LAPACK version 3.4.1)
 FFT Lib : default
 Fundamental constants values: CODATA 2010
 
 Run started: Wed, 20 Apr 2016 15:19:23 +0100
 Warning: parameters_read - missing parameters file, using defaults
 
 Atomic calculation performed for O: 1s2 2s2 2p4
 
 Converged in 60 iterations to an ae energy of -2027.926 eV
 
   ============================================================                
   | Pseudopotential Report - Date of generation 20-04-2016   |                
   ------------------------------------------------------------                
   | Element: O Ionic charge:  6.00 Level of theory: LDA      |                
   | Atomic Solver: Koelling-Harmon                           |                
   |                                                          |                
   |               Reference Electronic Structure             |                
   |         Orbital         Occupation         Energy        |                
   |            2s              2.000           -0.873        |                
   |            2p              4.000           -0.338        |                
   |                                                          |                
   |                 Pseudopotential Definition               |                
   |        Beta     l      e      Rc     scheme   norm       |                
   |          1      0   -0.873   1.100     qc      0         |                
   |          2      0    0.250   1.100     qc      0         |                
   |          3      1   -0.338   1.100     qc      0         |                
   |          4      1    0.250   1.100     qc      0         |                
   |         loc     2    0.000   1.100     pn      0         |                
   |                                                          |                
   | Augmentation charge Rinner = 0.769                       |                
   | Partial core correction Rc = 0.769                       |                
   ------------------------------------------------------------                
   | "2|1.1|15|18|20|20:21(qc=7)"                             |                
   ------------------------------------------------------------                
   |      Author: Chris J. Pickard, Cambridge University      |                
   ============================================================                
 
 Atomic calculation performed for Mg: 1s2 2s2 2p6 3s2
 
 Converged in 47 iterations to an ae energy of -5427.407 eV
 
   ============================================================                
   | Pseudopotential Report - Date of generation 20-04-2016   |                
   ------------------------------------------------------------                
   | Element: Mg Ionic charge: 10.00 Level of theory: LDA     |                
   | Atomic Solver: Koelling-Harmon                           |                
   |                                                          |                
   |               Reference Electronic Structure             |                
   |         Orbital         Occupation         Energy        |                
   |            2s              2.000           -2.914        |                
   |            2p              6.000           -1.717        |                
   |            3s              2.000           -0.176        |                
   |                                                          |                
   |                 Pseudopotential Definition               |                
   |        Beta     l      e      Rc     scheme   norm       |                
   |          1      0   -2.914   1.804     qc      0         |                
   |          2      0   -0.176   1.804     qc      0         |                
   |          3      0    0.250   1.804     qc      0         |                
   |          4      1   -1.717   1.804     qc      0         |                
   |          5      1    0.250   1.804     qc      0         |                
   |          6      2    0.000   1.804     qc      0         |                
   |          7      2    0.250   1.804     qc      0         |                
   |         loc     3    0.000   1.804     pn      0         |                
   |                                                          |                
   | Augmentation charge Rinner = 1.261                       |                
   | Partial core correction Rc = 1.261                       |                
   ------------------------------------------------------------                
   | "3|1.8|7|8|9|20U:30:21:32"                               |                
   ------------------------------------------------------------                
   |      Author: Chris J. Pickard, Cambridge University      |                
   ============================================================                
 
 Atomic calculation performed for Ca: 1s2 2s2 2p6 3s2 3p6 4s2
 
 Converged in 44 iterations to an ae energy of -18468.059 eV
 
   ============================================================                
   | Pseudopotential Report - Date of generation 20-04-2016   |                
   ------------------------------------------------------------                
   | Element: Ca Ionic charge: 10.00 Level of theory: LDA     |                
   | Atomic Solver: Koelling-Harmon                           |                
   |                                                          |                
   |               Reference Electronic Structure             |                
   |         Orbital         Occupation         Energy        |                
   |            3s              2.000           -1.721        |                
   |            3p              6.000           -1.028        |                
   |            4s              2.000           -0.142        |                
   |                                                          |                
   |                 Pseudopotential Definition               |                
   |        Beta     l      e      Rc     scheme   norm       |                
   |          1      0   -1.721   2.005     qc      0         |                
   |          2      0   -0.142   2.005     qc      0         |                
   |          3      0    0.250   2.005     qc      0         |                
   |          4      1   -1.028   2.005     qc      0         |                
   |          5      1    0.250   2.005     qc      0         |                
   |          6      2    0.000   2.005     qc      0         |                
   |          7      2    0.250   2.005     qc      0         |                
   |         loc     3    0.000   2.005     pn      0         |                
   |                                                          |                
   | Augmentation charge Rinner = 1.401                       |                
   | Partial core correction Rc = 1.401                       |                
   ------------------------------------------------------------                
   | "3|2.0|7|8|9|30U:40:31:32"                               |                
   ------------------------------------------------------------                
   |      Author: Chris J. Pickard, Cambridge University      |                
   ============================================================                
 
 Pseudo atomic calculation performed for O 2s2 2p4
 
 Converged in 24 iterations to a total energy of -431.6155 eV
 
 
 Pseudo atomic calculation performed for Mg 2s2 2p6 3s2
 
 Converged in 20 iterations to a total energy of -1684.7622 eV
 
 
 Pseudo atomic calculation performed for Ca 3s2 3p6 4s2
 
 Converged in 19 iterations to a total energy of -1001.6194 eV
 
 Calculation not parallelised.
 Warning: parameters_output - missing parameters file, using defaults

 ************************************ Title ************************************
 

 ***************************** General Parameters ******************************
  
 output verbosity                               : normal  (1)
 write checkpoint data to                       : ../Mg25Ca75.check
 type of calculation                            : single point energy
 stress calculation                             : off
 density difference calculation                 : off
 electron localisation func (ELF) calculation   : off
 Hirshfeld analysis                             : off
 unlimited duration calculation
 timing information                             : on
 memory usage estimate                          : on
 write final potential to formatted file        : off
 write final density to formatted file          : off
 write BibTeX reference list                    : on
 write OTFG pseudopotential files               : on
 checkpoint writing                             : both castep_bin and check files
 random number generator seed                   : randomised (151923058)

 *********************** Exchange-Correlation Parameters ***********************
  
 using functional                               : Local Density Approximation
 DFT+D: Semi-empirical dispersion correction    : off

 ************************* Pseudopotential Parameters **************************
  
 pseudopotential representation                 : reciprocal space
 <beta|phi> representation                      : reciprocal space
 spin-orbit coupling                            : off

 **************************** Basis Set Parameters *****************************
  
 basis set accuracy                             : FINE
 finite basis set correction                    : none

 **************************** Electronic Parameters ****************************
  
 number of  electrons                           :  64.00    
 net charge of system                           :  0.000    
 treating system as non-spin-polarized
 number of bands                                :         38

 ********************* Electronic Minimization Parameters **********************
  
 Method: Treating system as metallic with density mixing treatment of electrons,
         and number of  SD  steps               :          1
         and number of  CG  steps               :          4
  
 total energy / atom convergence tol.           : 0.1000E-04   eV
 eigen-energy convergence tolerance             : 0.1000E-05   eV
 max force / atom convergence tol.              : ignored
 periodic dipole correction                     : NONE

 ************************** Density Mixing Parameters **************************
  
 density-mixing scheme                          : Broyden
 max. length of mixing history                  :         20

 *********************** Population Analysis Parameters ************************
  
 Population analysis with cutoff                :  3.000       A

 *******************************************************************************
  
 
                           -------------------------------
                                      Unit Cell
                           -------------------------------
        Real Lattice(A)                      Reciprocal Lattice(1/A)
   4.2000000   0.0000000   0.0000000        1.4959965   0.0000000   0.0000000
   0.0000000   4.2000000   0.0000000        0.0000000   1.4959965   0.0000000
   0.0000000   0.0000000   4.2000000        0.0000000   0.0000000   1.4959965
 
                       Lattice parameters(A)       Cell Angles
                    a =    4.200000          alpha =   90.000000
                    b =    4.200000          beta  =   90.000000
                    c =    4.200000          gamma =   90.000000
 
                       Current cell volume =   74.088000       A**3
 
                           -------------------------------
                                     Cell Contents
                           -------------------------------
                         Total number of ions in cell =    8
                      Total number of species in cell =    3
                        Max number of any one species =    4
 
            xxxxxxxxxxxxxxxxxxxxxxxxxxxxxxxxxxxxxxxxxxxxxxxxxxxxxxxxxxxx
            x  Element    Atom        Fractional coordinates of atoms  x
            x            Number           u          v          w      x
            x----------------------------------------------------------x
            x  O            1         0.500000   0.500000   0.500000   x 
            x  O            2         0.500000   0.000000   0.000000   x 
            x  O            3         0.000000   0.500000   0.000000   x 
            x  O            4         0.000000   0.000000   0.500000   x 
            x  Mg           1         0.500000   0.500000   0.000000   x 
            x  Ca           1         0.000000   0.000000   0.000000   x 
            x  Ca           2         0.000000   0.500000   0.500000   x 
            x  Ca           3         0.500000   0.000000   0.500000   x 
            xxxxxxxxxxxxxxxxxxxxxxxxxxxxxxxxxxxxxxxxxxxxxxxxxxxxxxxxxxxx
 
 
                         No user defined ionic velocities
 
                           -------------------------------
                                   Details of Species
                           -------------------------------
 
                               Mass of species in AMU
                                    O   15.9994000
                                    Mg   24.3050000
                                    Ca   40.0780000
 
                          Electric Quadrupole Moment (Barn)
                                    O   -0.0255800 Isotope 17
                                    Mg    0.1994000 Isotope 25
                                    Ca   -0.0408000 Isotope 43
 
                          Files used for pseudopotentials:
                                    O 2|1.1|15|18|20|20:21(qc=7)
                                    Mg 3|1.8|7|8|9|20U:30:21:32
                                    Ca 3|2.0|7|8|9|30U:40:31:32
 
                           -------------------------------
                              k-Points For BZ Sampling
                           -------------------------------
                       MP grid size for SCF calculation is  3  3  3
                            with an offset of   0.000  0.000  0.000
                       Number of kpoints used =             4
 
                           -------------------------------
                               Symmetry and Constraints
                           -------------------------------
 
                      Maximum deviation from symmetry = 0.940008E-15     ANG
 
                      Number of symmetry operations   =          48
                      Number of ionic constraints     =           3
                      Point group of crystal =    32: Oh, m-3m, 4/m -3 2/m
                      Space group of crystal =   221: Pm-3m, -P 4 2 3
 
             Set iprint > 1 for details on symmetry rotations/translations
 
                         Centre of mass is constrained
             Set iprint > 1 for details of linear ionic constraints
 
                         Number of cell constraints= 5
                         Cell constraints are:  1 1 1 0 0 0
 
                         External pressure/stress (GPa)
                          0.00000   0.00000   0.00000
                                    0.00000   0.00000
                                              0.00000
  
+---------------- MEMORY AND SCRATCH DISK ESTIMATES PER PROCESS --------------+
|                                                     Memory          Disk    |
| Baseline code, static data and system overhead      146.0 MB         0.0 MB |
| BLAS internal memory storage                          0.0 MB         0.0 MB |
| Model and support data                               59.0 MB        88.7 MB |
| Electronic energy minimisation requirements          14.4 MB         0.0 MB |
| Force calculation requirements                        3.5 MB         0.0 MB |
|                                               ----------------------------- |
| Approx. total storage required per process          219.4 MB        88.7 MB |
|                                                                             |
| Requirements will fluctuate during execution and may exceed these estimates |
+-----------------------------------------------------------------------------+
------------------------------------------------------------------------ <-- SCF
SCF loop      Energy           Fermi           Energy gain       Timer   <-- SCF
                               energy          per atom          (sec)   <-- SCF
------------------------------------------------------------------------ <-- SCF
Initial  -5.26759135E+003  0.00000000E+000                        11.65  <-- SCF
      1  -6.31766208E+003  1.20832071E+001   1.31258842E+002      12.48  <-- SCF
      2  -6.47381984E+003  5.65598862E+000   1.95197191E+001      13.17  <-- SCF
      3  -6.47592261E+003  5.33429498E+000   2.62847063E-001      13.87  <-- SCF
      4  -6.47438688E+003  9.53081417E+000  -1.91966452E-001      14.67  <-- SCF
      5  -6.46825875E+003  7.74561386E+000  -7.66016832E-001      15.49  <-- SCF
      6  -6.46817598E+003  7.90171168E+000  -1.03455836E-002      16.41  <-- SCF
      7  -6.46816528E+003  7.97795013E+000  -1.33743000E-003      17.27  <-- SCF
      8  -6.46815973E+003  8.02630298E+000  -6.94015947E-004      18.11  <-- SCF
      9  -6.46815951E+003  8.00866746E+000  -2.75746010E-005      18.88  <-- SCF
     10  -6.46815950E+003  8.01165663E+000  -1.47851835E-006      19.46  <-- SCF
     11  -6.46815950E+003  8.01239998E+000  -9.27003679E-008      20.02  <-- SCF
------------------------------------------------------------------------ <-- SCF
 
Final energy, E             =  -6468.159495900     eV
Final free energy (E-TS)    =  -6468.159495900     eV
(energies not corrected for finite basis set)
 
NB est. 0K energy (E-0.5TS)      =  -6468.159495900     eV
 

Writing analysis data to ../Mg25Ca75.castep_bin

Writing model to ../Mg25Ca75.check
 
 ***************** Symmetrised Forces *****************
 *                                                    *
 *            Cartesian components (eV/A)             *
 * -------------------------------------------------- *
 *                   x            y            z      *
 *                                                    *
 * O         1      0.00000      0.00000      0.00000 *
 * O         2      0.00000      0.00000      0.00000 *
 * O         3      0.00000      0.00000      0.00000 *
 * O         4      0.00000      0.00000      0.00000 *
 * Mg        1      0.00000      0.00000      0.00000 *
 * Ca        1      0.00000      0.00000      0.00000 *
 * Ca        2      0.00000      0.00000      0.00000 *
 * Ca        3      0.00000      0.00000      0.00000 *
 *                                                    *
 ******************************************************
 
 Pseudo atomic calculation performed for O 2s2 2p4
 
 Converged in 24 iterations to a total energy of -431.6155 eV
 
 
 Pseudo atomic calculation performed for Mg 2s2 2p6 3s2
 
 Converged in 20 iterations to a total energy of -1684.7622 eV
 
 
 Pseudo atomic calculation performed for Ca 3s2 3p6 4s2
 
 Converged in 19 iterations to a total energy of -1001.6194 eV
 
Charge spilling parameter for spin component 1 = 0.21%
 
     Atomic Populations (Mulliken)
     -----------------------------
Species   Ion     s      p      d      f     Total  Charge (e)
==============================================================
  O        1     1.83   5.09   0.00   0.00   6.92    -0.92
  O        2     1.83   5.09   0.00   0.00   6.92    -0.92
  O        3     1.83   5.09   0.00   0.00   6.92    -0.92
  O        4     1.83   5.03   0.00   0.00   6.87    -0.87
  Mg       1     2.36   6.75   0.00   0.00   9.10     0.90
  Ca       1     2.14   5.99   0.97   0.00   9.09     0.91
  Ca       2     2.14   5.99   0.97   0.00   9.09     0.91
  Ca       3     2.14   5.99   0.97   0.00   9.09     0.91
==============================================================
 
            Bond              Population      Length (A)
============================================================
          O 4 -- Ca 3              0.19        2.10000
          O 4 -- Ca 2              0.19        2.10000
          O 4 -- Ca 1              0.19        2.10000
          O 3 -- Ca 2              0.21        2.10000
          O 3 -- Ca 1              0.21        2.10000
          O 3 -- Mg 1              0.54        2.10000
          O 2 -- Ca 3              0.21        2.10000
          O 2 -- Ca 1              0.21        2.10000
          O 2 -- Mg 1              0.54        2.10000
          O 1 -- Ca 3              0.21        2.10000
          O 1 -- Ca 2              0.21        2.10000
          O 1 -- Mg 1              0.54        2.10000
         Ca 2 -- Ca 3             -0.33        2.96985
         Ca 1 -- Ca 3             -0.33        2.96985
         Ca 1 -- Ca 2             -0.33        2.96985
         Mg 1 -- Ca 3             -0.33        2.96985
         Mg 1 -- Ca 2             -0.33        2.96985
         Mg 1 -- Ca 1             -0.33        2.96985
          O 3 -- O 4              -0.04        2.96985
          O 2 -- O 4              -0.04        2.96985
          O 2 -- O 3              -0.10        2.96985
          O 1 -- O 4              -0.04        2.96985
          O 1 -- O 3              -0.10        2.96985
          O 1 -- O 2              -0.10        2.96985
============================================================
 

Writing analysis data to ../Mg25Ca75.castep_bin

Writing model to ../Mg25Ca75.check
 
 A BibTeX formatted list of references used in this run has been written to 
 ../Mg25Ca75.bib
 
Initialisation time =      9.87 s
Calculation time    =     11.82 s
Finalisation time   =      0.77 s
Total time          =     22.46 s
Peak Memory Use     = 622780 kB
