 +-------------------------------------------------+
 |                                                 |
 |      CCC   AA    SSS  TTTTT  EEEEE  PPPP        |
 |     C     A  A  S       T    E      P   P       |
 |     C     AAAA   SS     T    EEE    PPPP        |
 |     C     A  A     S    T    E      P           |
 |      CCC  A  A  SSS     T    EEEEE  P           |
 |                                                 |
 +-------------------------------------------------+
 |                                                 |
 | Welcome to Academic Release CASTEP version 9.0  |
 | Ab Initio Total Energy Program                  |
 |                                                 |
 | Authors:                                        |
 | M. Segall, M. Probert, C. Pickard, P. Hasnip,   |
 | S. Clark, K. Refson, J. R. Yates, M. Payne      |
 |                                                 |
 | Contributors:                                   |
 | P. Lindan, P. Haynes, J. White, V. Milman,      |
 | N. Govind, M. Gibson, P. Tulip, V. Cocula,      |
 | B. Montanari, D. Quigley, M. Glover,            |
 | L. Bernasconi, A. Perlov, M. Plummer,           |
 | E. McNellis, J. Meyer, J. Gale, D. Jochym       |
 | J. Aarons, B. Walker, R. Gillen, D. Jones       |
 | T. Green, I. J. Bush, C. J. Armstrong,          |
 | E. J. Higgins, M. D. Hodgson                    |
 |                                                 |
 | Copyright (c) 2000 - 2015                       |
 |                                                 |
 |     Distributed under the terms of an           |
 |     Agreement between the United Kingdom        |
 |     Car-Parrinello (UKCP) Consortium,           |
 |     Daresbury Laboratory and Accelrys, Inc.     |
 |                                                 |
 | Please cite                                     |
 |                                                 |
 |     "First principles methods using CASTEP"     |
 |                                                 |
 |         Zeitschrift fuer Kristallographie       |
 |           220(5-6) pp. 567-570 (2005)           |
 |                                                 |
 | S. J. Clark, M. D. Segall, C. J. Pickard,       |
 | P. J. Hasnip, M. J. Probert, K. Refson,         |
 | M. C. Payne                                     |
 |                                                 |
 |       in all publications arising from          |
 |              your use of CASTEP                 |
 |                                                 |
 +-------------------------------------------------+
 
 
 Compiled for linux_x86_64_ifort12 on Fri, 09 Oct 2015 16:14:59 +0100
 from code version 01cdeb6dcbec+  Thu, 01 Oct 2015 17:06:55 +0100
 Compiler: Intel Fortran 12.1.5.339; Optimisation: fast
 MATHLIBS: Intel MKL(11.0.5) (LAPACK version 3.4.1)
 FFT Lib : default
 Fundamental constants values: CODATA 2010
 
 Run started: Wed, 20 Apr 2016 13:52:03 +0100
 
 Atomic calculation performed for O: 1s2 2s2 2p4
 
 Converged in 60 iterations to an ae energy of -2027.926 eV
 
   ============================================================                
   | Pseudopotential Report - Date of generation 20-04-2016   |                
   ------------------------------------------------------------                
   | Element: O Ionic charge:  6.00 Level of theory: LDA      |                
   | Atomic Solver: Koelling-Harmon                           |                
   |                                                          |                
   |               Reference Electronic Structure             |                
   |         Orbital         Occupation         Energy        |                
   |            2s              2.000           -0.873        |                
   |            2p              4.000           -0.338        |                
   |                                                          |                
   |                 Pseudopotential Definition               |                
   |        Beta     l      e      Rc     scheme   norm       |                
   |          1      0   -0.873   1.100     qc      0         |                
   |          2      0    0.250   1.100     qc      0         |                
   |          3      1   -0.338   1.100     qc      0         |                
   |          4      1    0.250   1.100     qc      0         |                
   |         loc     2    0.000   1.100     pn      0         |                
   |                                                          |                
   | Augmentation charge Rinner = 0.769                       |                
   | Partial core correction Rc = 0.769                       |                
   ------------------------------------------------------------                
   | "2|1.1|15|18|20|20:21(qc=7)"                             |                
   ------------------------------------------------------------                
   |      Author: Chris J. Pickard, Cambridge University      |                
   ============================================================                
 
 Atomic calculation performed for Mg: 1s2 2s2 2p6 3s2
 
 Converged in 47 iterations to an ae energy of -5427.407 eV
 
   ============================================================                
   | Pseudopotential Report - Date of generation 20-04-2016   |                
   ------------------------------------------------------------                
   | Element: Mg Ionic charge: 10.00 Level of theory: LDA     |                
   | Atomic Solver: Koelling-Harmon                           |                
   |                                                          |                
   |               Reference Electronic Structure             |                
   |         Orbital         Occupation         Energy        |                
   |            2s              2.000           -2.914        |                
   |            2p              6.000           -1.717        |                
   |            3s              2.000           -0.176        |                
   |                                                          |                
   |                 Pseudopotential Definition               |                
   |        Beta     l      e      Rc     scheme   norm       |                
   |          1      0   -2.914   1.804     qc      0         |                
   |          2      0   -0.176   1.804     qc      0         |                
   |          3      0    0.250   1.804     qc      0         |                
   |          4      1   -1.717   1.804     qc      0         |                
   |          5      1    0.250   1.804     qc      0         |                
   |          6      2    0.000   1.804     qc      0         |                
   |          7      2    0.250   1.804     qc      0         |                
   |         loc     3    0.000   1.804     pn      0         |                
   |                                                          |                
   | Augmentation charge Rinner = 1.261                       |                
   | Partial core correction Rc = 1.261                       |                
   ------------------------------------------------------------                
   | "3|1.8|7|8|9|20U:30:21:32"                               |                
   ------------------------------------------------------------                
   |      Author: Chris J. Pickard, Cambridge University      |                
   ============================================================                
 
 Atomic calculation performed for Ca: 1s2 2s2 2p6 3s2 3p6 4s2
 
 Converged in 44 iterations to an ae energy of -18468.059 eV
 
   ============================================================                
   | Pseudopotential Report - Date of generation 20-04-2016   |                
   ------------------------------------------------------------                
   | Element: Ca Ionic charge: 10.00 Level of theory: LDA     |                
   | Atomic Solver: Koelling-Harmon                           |                
   |                                                          |                
   |               Reference Electronic Structure             |                
   |         Orbital         Occupation         Energy        |                
   |            3s              2.000           -1.721        |                
   |            3p              6.000           -1.028        |                
   |            4s              2.000           -0.142        |                
   |                                                          |                
   |                 Pseudopotential Definition               |                
   |        Beta     l      e      Rc     scheme   norm       |                
   |          1      0   -1.721   2.005     qc      0         |                
   |          2      0   -0.142   2.005     qc      0         |                
   |          3      0    0.250   2.005     qc      0         |                
   |          4      1   -1.028   2.005     qc      0         |                
   |          5      1    0.250   2.005     qc      0         |                
   |          6      2    0.000   2.005     qc      0         |                
   |          7      2    0.250   2.005     qc      0         |                
   |         loc     3    0.000   2.005     pn      0         |                
   |                                                          |                
   | Augmentation charge Rinner = 1.401                       |                
   | Partial core correction Rc = 1.401                       |                
   ------------------------------------------------------------                
   | "3|2.0|7|8|9|30U:40:31:32"                               |                
   ------------------------------------------------------------                
   |      Author: Chris J. Pickard, Cambridge University      |                
   ============================================================                
 
 Pseudo atomic calculation performed for O 2s2 2p4
 
 Converged in 28 iterations to a total energy of -424.4682 eV
 
 
 Pseudo atomic calculation performed for Mg 2s2 2p6 3s2
 
 Converged in 19 iterations to a total energy of -1684.3182 eV
 
 
 Pseudo atomic calculation performed for Ca 3s2 3p6 4s2
 
 Converged in 24 iterations to a total energy of -1001.5365 eV
 
 Calculation not parallelised.

 ************************************ Title ************************************
 MgO

 ***************************** General Parameters ******************************
  
 output verbosity                               : normal  (1)
 write checkpoint data to                       : ../MgO.check
 type of calculation                            : single point energy
 stress calculation                             : on
 density difference calculation                 : off
 electron localisation func (ELF) calculation   : off
 Hirshfeld analysis                             : off
 unlimited duration calculation
 timing information                             : on
 memory usage estimate                          : on
 write final potential to formatted file        : off
 write final density to formatted file          : off
 write BibTeX reference list                    : on
 write OTFG pseudopotential files               : on
 checkpoint writing                             : both castep_bin and check files
  
 output         length unit                     : A
 output           mass unit                     : amu
 output           time unit                     : ps
 output         charge unit                     : e
 output           spin unit                     : hbar/2
 output         energy unit                     : eV
 output          force unit                     : eV/A
 output       velocity unit                     : A/ps
 output       pressure unit                     : GPa
 output     inv_length unit                     : 1/A
 output      frequency unit                     : cm-1
 output force constant unit                     : eV/A**2
 output         volume unit                     : A**3
 output   IR intensity unit                     : (D/A)**2/amu
 output         dipole unit                     : D
 output         efield unit                     : eV/A/e
 output        entropy unit                     : J/mol/K
  
 wavefunctions paging                           : none
 random number generator seed                   : randomised (135204177)
 data distribution                              : optimal for this architecture
 optimization strategy                          : maximize speed(+++)

 *********************** Exchange-Correlation Parameters ***********************
  
 using functional                               : Local Density Approximation
 relativistic treatment                         : Koelling-Harmon
 DFT+D: Semi-empirical dispersion correction    : off

 ************************* Pseudopotential Parameters **************************
  
 pseudopotential representation                 : reciprocal space
 <beta|phi> representation                      : reciprocal space
 spin-orbit coupling                            : off

 **************************** Basis Set Parameters *****************************
  
 plane wave basis set cut-off                   :   280.0000   eV
 size of standard grid                          :     2.0000
 size of   fine   gmax                          :    17.1454   1/A
 finite basis set correction                    : automatic
 number of sample energies                      :          3
           sample  spacing                      :     5.0000   eV

 **************************** Electronic Parameters ****************************
  
 number of  electrons                           :  64.00    
 net charge of system                           :  0.000    
 treating system as non-spin-polarized
 number of bands                                :         38

 ********************* Electronic Minimization Parameters **********************
  
 Method: Treating system as metallic with density mixing treatment of electrons,
         and number of  SD  steps               :          1
         and number of  CG  steps               :          4
  
 total energy / atom convergence tol.           : 0.1000E-06   eV
 eigen-energy convergence tolerance             : 0.2500E-07   eV
 max force / atom convergence tol.              : ignored
 convergence tolerance window                   :          3   cycles
 max. number of SCF cycles                      :         60
 number of fixed-spin iterations                :         10
 smearing scheme                                : Gaussian
 smearing width                                 : 0.2000       eV
 Fermi energy convergence tolerance             : 0.2721E-13   eV
 periodic dipole correction                     : NONE

 ************************** Density Mixing Parameters **************************
  
 density-mixing scheme                          : Pulay
 max. length of mixing history                  :         30
 charge density mixing amplitude                : 0.8000    
 cut-off energy for mixing                      :  280.0       eV

 *********************** Population Analysis Parameters ************************
  
 Population analysis with cutoff                :  3.000       A

 *******************************************************************************
  
 
                           -------------------------------
                                      Unit Cell
                           -------------------------------
        Real Lattice(A)                      Reciprocal Lattice(1/A)
   4.2000000   0.0000000   0.0000000        1.4959965   0.0000000   0.0000000
   0.0000000   4.2000000   0.0000000        0.0000000   1.4959965   0.0000000
   0.0000000   0.0000000   4.2000000        0.0000000   0.0000000   1.4959965
 
                       Lattice parameters(A)       Cell Angles
                    a =    4.200000          alpha =   90.000000
                    b =    4.200000          beta  =   90.000000
                    c =    4.200000          gamma =   90.000000
 
                       Current cell volume =   74.088000       A**3
 
                           -------------------------------
                                     Cell Contents
                           -------------------------------
                         Total number of ions in cell =    8
                      Total number of species in cell =    3
                        Max number of any one species =    4
 
            xxxxxxxxxxxxxxxxxxxxxxxxxxxxxxxxxxxxxxxxxxxxxxxxxxxxxxxxxxxx
            x  Element    Atom        Fractional coordinates of atoms  x
            x            Number           u          v          w      x
            x----------------------------------------------------------x
            x  O            1         0.500000   0.500000   0.500000   x 
            x  O            2         0.500000   0.000000   0.000000   x 
            x  O            3         0.500000   0.000000   0.500000   x 
            x  O            4         0.500000   0.500000   0.000000   x 
            x  Mg           1         0.000000   0.500000   0.000000   x 
            x  Mg           2         0.000000   0.500000   0.500000   x 
            x  Ca           1         0.000000   0.000000   0.500000   x 
            x  Ca           2         0.000000   0.000000   0.000000   x 
            xxxxxxxxxxxxxxxxxxxxxxxxxxxxxxxxxxxxxxxxxxxxxxxxxxxxxxxxxxxx
 
 
                         No user defined ionic velocities
 
                           -------------------------------
                                   Details of Species
                           -------------------------------
 
                               Mass of species in AMU
                                    O   15.9994000
                                    Mg   24.3050000
                                    Ca   40.0780000
 
                          Electric Quadrupole Moment (Barn)
                                    O   -0.0255800 Isotope 17
                                    Mg    0.1994000 Isotope 25
                                    Ca   -0.0408000 Isotope 43
 
                          Files used for pseudopotentials:
                                    O 2|1.1|15|18|20|20:21(qc=7)
                                    Mg 3|1.8|7|8|9|20U:30:21:32
                                    Ca 3|2.0|7|8|9|30U:40:31:32
 
                           -------------------------------
                              k-Points For BZ Sampling
                           -------------------------------
                       MP grid size for SCF calculation is  3  3  3
                            with an offset of   0.000  0.000  0.000
                       Number of kpoints used =             8
 
                           -------------------------------
                               Symmetry and Constraints
                           -------------------------------
 
                      Cell is a supercell containing 2 primitive cells
                      Maximum deviation from symmetry = 0.940008E-15     ANG
 
                      Number of symmetry operations   =          16
                      Number of ionic constraints     =           3
                      Point group of crystal =     8: D2h, mmm, 2/m 2/m 2/m
                      Space group of crystal =    47: Pmmm, -P 2 2
 
             Set iprint > 1 for details on symmetry rotations/translations
 
                         Centre of mass is constrained
             Set iprint > 1 for details of linear ionic constraints
 
                         Number of cell constraints= 5
                         Cell constraints are:  1 1 1 0 0 0
 
                         External pressure/stress (GPa)
                          0.00000   0.00000   0.00000
                                    0.00000   0.00000
                                              0.00000
  
+---------------- MEMORY AND SCRATCH DISK ESTIMATES PER PROCESS --------------+
|                                                     Memory          Disk    |
| Baseline code, static data and system overhead      146.0 MB         0.0 MB |
| BLAS internal memory storage                          0.0 MB         0.0 MB |
| Model and support data                              100.7 MB         0.0 MB |
| Electronic energy minimisation requirements          11.1 MB         0.0 MB |
| Force calculation requirements                        1.8 MB         0.0 MB |
| Stress calculation requirements                       2.1 MB         0.0 MB |
|                                               ----------------------------- |
| Approx. total storage required per process          257.8 MB         0.0 MB |
|                                                                             |
| Requirements will fluctuate during execution and may exceed these estimates |
+-----------------------------------------------------------------------------+
Calculating finite basis set correction with  3 cut-off energies.
Calculating total energy with cut-off of  270.000eV.
------------------------------------------------------------------------ <-- SCF
SCF loop      Energy           Fermi           Energy gain       Timer   <-- SCF
                               energy          per atom          (sec)   <-- SCF
------------------------------------------------------------------------ <-- SCF
Initial  -5.71798696E+003  0.00000000E+000                        12.89  <-- SCF
      1  -6.92285495E+003  1.01868168E+001   1.50608500E+002      13.55  <-- SCF
      2  -7.07977513E+003  8.82702923E+000   1.96150225E+001      14.12  <-- SCF
      3  -7.08380684E+003  8.69541449E+000   5.03963471E-001      14.67  <-- SCF
      4  -7.09387430E+003  8.46631481E+000   1.25843196E+000      15.30  <-- SCF
      5  -7.08100814E+003  8.77842427E+000  -1.60826922E+000      15.87  <-- SCF
      6  -7.08091090E+003  9.06669030E+000  -1.21547155E-002      16.47  <-- SCF
      7  -7.08043595E+003  8.73200033E+000  -5.93698421E-002      17.09  <-- SCF
      8  -7.08043123E+003  8.75281635E+000  -5.89654563E-004      17.70  <-- SCF
      9  -7.08043073E+003  8.74590793E+000  -6.17732928E-005      18.29  <-- SCF
     10  -7.08043057E+003  8.74978610E+000  -2.08989743E-005      18.85  <-- SCF
     11  -7.08043055E+003  8.74872464E+000  -2.04900533E-006      19.37  <-- SCF
     12  -7.08043055E+003  8.74859460E+000   4.53019450E-008      19.76  <-- SCF
     13  -7.08043055E+003  8.74863446E+000   7.91762190E-010      20.13  <-- SCF
------------------------------------------------------------------------ <-- SCF
 
Final energy, E             =  -7080.314329342     eV
Final free energy (E-TS)    =  -7080.430551614     eV
(energies not corrected for finite basis set)
 
NB est. 0K energy (E-0.5TS)      =  -7080.372440478     eV
 
Calculating total energy with cut-off of  275.000eV.
------------------------------------------------------------------------ <-- SCF
SCF loop      Energy           Fermi           Energy gain       Timer   <-- SCF
                               energy          per atom          (sec)   <-- SCF
------------------------------------------------------------------------ <-- SCF
Initial  -7.08031433E+003  0.00000000E+000                        20.31  <-- SCF
      1  -7.08364389E+003  8.64192147E+000   4.16194725E-001      20.82  <-- SCF
      2  -7.08365263E+003  8.64193778E+000   1.09298497E-003      21.45  <-- SCF
      3  -7.08385128E+003  9.07828156E+000   2.48307982E-002      22.03  <-- SCF
      4  -7.08362272E+003  8.78445404E+000  -2.85693823E-002      22.61  <-- SCF
      5  -7.08361280E+003  8.76432340E+000  -1.23976181E-003      23.21  <-- SCF
      6  -7.08361165E+003  8.73978566E+000  -1.44796580E-004      23.82  <-- SCF
      7  -7.08361120E+003  8.74674131E+000  -5.59140776E-005      24.38  <-- SCF
      8  -7.08361120E+003  8.74778281E+000  -1.55606309E-007      24.88  <-- SCF
      9  -7.08361120E+003  8.74795244E+000  -1.33046984E-008      25.25  <-- SCF
     10  -7.08361120E+003  8.74788283E+000  -1.41144420E-009      25.62  <-- SCF
------------------------------------------------------------------------ <-- SCF
 
Final energy, E             =  -7083.505649816     eV
Final free energy (E-TS)    =  -7083.611197200     eV
(energies not corrected for finite basis set)
 
NB est. 0K energy (E-0.5TS)      =  -7083.558423508     eV
 
Calculating total energy with cut-off of  280.000eV.
------------------------------------------------------------------------ <-- SCF
SCF loop      Energy           Fermi           Energy gain       Timer   <-- SCF
                               energy          per atom          (sec)   <-- SCF
------------------------------------------------------------------------ <-- SCF
Initial  -7.08350565E+003  0.00000000E+000                        25.80  <-- SCF
      1  -7.08597089E+003  8.66598061E+000   3.08155415E-001      26.28  <-- SCF
      2  -7.08598022E+003  8.66617250E+000   1.16638501E-003      26.85  <-- SCF
      3  -7.08605180E+003  8.87765062E+000   8.94711211E-003      27.45  <-- SCF
      4  -7.08596460E+003  8.73893537E+000  -1.09004665E-002      28.04  <-- SCF
      5  -7.08596118E+003  8.72598264E+000  -4.27334460E-004      28.66  <-- SCF
      6  -7.08596055E+003  8.72456334E+000  -7.83092781E-005      29.23  <-- SCF
      7  -7.08596054E+003  8.72569063E+000  -1.16052441E-006      29.78  <-- SCF
      8  -7.08596054E+003  8.72588559E+000  -3.95101900E-008      30.17  <-- SCF
      9  -7.08596054E+003  8.72584419E+000   4.27686927E-010      30.55  <-- SCF
------------------------------------------------------------------------ <-- SCF
 
Final energy, E             =  -7085.882561249     eV
Final free energy (E-TS)    =  -7085.960542631     eV
(energies not corrected for finite basis set)
 
NB est. 0K energy (E-0.5TS)      =  -7085.921551940     eV
 
 For future reference: finite basis dEtot/dlog(Ecut) =    -137.587049eV
 Total energy corrected for finite basis set =   -7086.115896 eV
 
 ***************** Symmetrised Forces *****************
 *                                                    *
 *            Cartesian components (eV/A)             *
 * -------------------------------------------------- *
 *                   x            y            z      *
 *                                                    *
 * O         1      0.00000      0.00000      0.00000 *
 * O         2      0.00000      0.00000      0.00000 *
 * O         3      0.00000      0.00000      0.00000 *
 * O         4      0.00000      0.00000      0.00000 *
 * Mg        1      0.00000      0.00000      0.00000 *
 * Mg        2      0.00000      0.00000      0.00000 *
 * Ca        1      0.00000      0.00000      0.00000 *
 * Ca        2      0.00000      0.00000      0.00000 *
 *                                                    *
 ******************************************************
 
 *********** Symmetrised Stress Tensor ***********
 *                                               *
 *          Cartesian components (GPa)           *
 * --------------------------------------------- *
 *             x             y             z     *
 *                                               *
 *  x     -5.360587      0.000000      0.000000  *
 *  y      0.000000   -133.934616      0.000000  *
 *  z      0.000000      0.000000   -138.726281  *
 *                                               *
 *  Pressure:   92.6738                          *
 *                                               *
 *************************************************
 
 Pseudo atomic calculation performed for O 2s2 2p4
 
 Converged in 28 iterations to a total energy of -424.4682 eV
 
 
 Pseudo atomic calculation performed for Mg 2s2 2p6 3s2
 
 Converged in 19 iterations to a total energy of -1684.3182 eV
 
 
 Pseudo atomic calculation performed for Ca 3s2 3p6 4s2
 
 Converged in 24 iterations to a total energy of -1001.5365 eV
 
Charge spilling parameter for spin component 1 = 0.36%
 
     Atomic Populations (Mulliken)
     -----------------------------
Species   Ion     s      p      d      f     Total  Charge (e)
==============================================================
  O        1     1.95   4.49   0.00   0.00   6.44    -0.44
  O        2     1.93   4.53   0.00   0.00   6.46    -0.46
  O        3     1.93   4.53   0.00   0.00   6.46    -0.46
  O        4     1.95   4.49   0.00   0.00   6.44    -0.44
  Mg       1     2.66   7.10   0.00   0.00   9.76     0.24
  Mg       2     2.66   7.10   0.00   0.00   9.76     0.24
  Ca       1     1.67   5.85   1.81   0.00   9.34     0.66
  Ca       2     1.67   5.85   1.81   0.00   9.34     0.66
==============================================================
 
            Bond              Population      Length (A)
============================================================
         Ca 1 -- Ca 2              0.18        2.10000
         Mg 2 -- Ca 1             -1.30        2.10000
         Mg 1 -- Ca 2             -1.30        2.10000
         Mg 1 -- Mg 2              0.18        2.10000
          O 4 -- Mg 1              1.15        2.10000
          O 3 -- Ca 1              0.55        2.10000
          O 2 -- Ca 2              0.55        2.10000
          O 2 -- O 4              -0.08        2.10000
          O 2 -- O 3              -0.11        2.10000
          O 1 -- Mg 2              1.15        2.10000
          O 1 -- O 4              -0.03        2.10000
          O 1 -- O 3              -0.08        2.10000
         Mg 2 -- Ca 2             -2.14        2.96985
         Mg 1 -- Ca 1             -2.14        2.96985
          O 4 -- Ca 2             -0.27        2.96985
          O 4 -- Mg 2             -0.70        2.96985
          O 3 -- Ca 2             -0.02        2.96985
          O 3 -- Mg 2             -0.05        2.96985
          O 3 -- O 4              -0.10        2.96985
          O 2 -- Ca 1             -0.02        2.96985
          O 2 -- Mg 1             -0.05        2.96985
          O 1 -- Ca 1             -0.27        2.96985
          O 1 -- Mg 1             -0.70        2.96985
          O 1 -- O 2              -0.10        2.96985
============================================================
 

Writing analysis data to ../MgO.castep_bin

Writing model to ../MgO.check
 
 A BibTeX formatted list of references used in this run has been written to 
 ../MgO.bib
 
Initialisation time =     11.34 s
Calculation time    =     20.98 s
Finalisation time   =      0.49 s
Total time          =     32.81 s
Peak Memory Use     = 604568 kB
 +-------------------------------------------------+
 |                                                 |
 |      CCC   AA    SSS  TTTTT  EEEEE  PPPP        |
 |     C     A  A  S       T    E      P   P       |
 |     C     AAAA   SS     T    EEE    PPPP        |
 |     C     A  A     S    T    E      P           |
 |      CCC  A  A  SSS     T    EEEEE  P           |
 |                                                 |
 +-------------------------------------------------+
 |                                                 |
 | Welcome to Academic Release CASTEP version 9.0  |
 | Ab Initio Total Energy Program                  |
 |                                                 |
 | Authors:                                        |
 | M. Segall, M. Probert, C. Pickard, P. Hasnip,   |
 | S. Clark, K. Refson, J. R. Yates, M. Payne      |
 |                                                 |
 | Contributors:                                   |
 | P. Lindan, P. Haynes, J. White, V. Milman,      |
 | N. Govind, M. Gibson, P. Tulip, V. Cocula,      |
 | B. Montanari, D. Quigley, M. Glover,            |
 | L. Bernasconi, A. Perlov, M. Plummer,           |
 | E. McNellis, J. Meyer, J. Gale, D. Jochym       |
 | J. Aarons, B. Walker, R. Gillen, D. Jones       |
 | T. Green, I. J. Bush, C. J. Armstrong,          |
 | E. J. Higgins, M. D. Hodgson                    |
 |                                                 |
 | Copyright (c) 2000 - 2015                       |
 |                                                 |
 |     Distributed under the terms of an           |
 |     Agreement between the United Kingdom        |
 |     Car-Parrinello (UKCP) Consortium,           |
 |     Daresbury Laboratory and Accelrys, Inc.     |
 |                                                 |
 | Please cite                                     |
 |                                                 |
 |     "First principles methods using CASTEP"     |
 |                                                 |
 |         Zeitschrift fuer Kristallographie       |
 |           220(5-6) pp. 567-570 (2005)           |
 |                                                 |
 | S. J. Clark, M. D. Segall, C. J. Pickard,       |
 | P. J. Hasnip, M. J. Probert, K. Refson,         |
 | M. C. Payne                                     |
 |                                                 |
 |       in all publications arising from          |
 |              your use of CASTEP                 |
 |                                                 |
 +-------------------------------------------------+
 
 
 Compiled for linux_x86_64_ifort12 on Fri, 09 Oct 2015 16:14:59 +0100
 from code version 01cdeb6dcbec+  Thu, 01 Oct 2015 17:06:55 +0100
 Compiler: Intel Fortran 12.1.5.339; Optimisation: fast
 MATHLIBS: Intel MKL(11.0.5) (LAPACK version 3.4.1)
 FFT Lib : default
 Fundamental constants values: CODATA 2010
 
<<<<<<< HEAD
 Run started: Wed, 20 Apr 2016 14:18:04 +0100
=======
 Run started: Wed, 20 Apr 2016 14:05:28 +0100
>>>>>>> 2f34388e3691b545719b33756d490ad7673db5ac
 
 Atomic calculation performed for O: 1s2 2s2 2p4
 
 Converged in 60 iterations to an ae energy of -2027.926 eV
 
   ============================================================                
   | Pseudopotential Report - Date of generation 20-04-2016   |                
   ------------------------------------------------------------                
   | Element: O Ionic charge:  6.00 Level of theory: LDA      |                
   | Atomic Solver: Koelling-Harmon                           |                
   |                                                          |                
   |               Reference Electronic Structure             |                
   |         Orbital         Occupation         Energy        |                
   |            2s              2.000           -0.873        |                
   |            2p              4.000           -0.338        |                
   |                                                          |                
   |                 Pseudopotential Definition               |                
   |        Beta     l      e      Rc     scheme   norm       |                
   |          1      0   -0.873   1.100     qc      0         |                
   |          2      0    0.250   1.100     qc      0         |                
   |          3      1   -0.338   1.100     qc      0         |                
   |          4      1    0.250   1.100     qc      0         |                
   |         loc     2    0.000   1.100     pn      0         |                
   |                                                          |                
   | Augmentation charge Rinner = 0.769                       |                
   | Partial core correction Rc = 0.769                       |                
   ------------------------------------------------------------                
   | "2|1.1|15|18|20|20:21(qc=7)"                             |                
   ------------------------------------------------------------                
   |      Author: Chris J. Pickard, Cambridge University      |                
   ============================================================                
 
 Atomic calculation performed for Mg: 1s2 2s2 2p6 3s2
 
 Converged in 47 iterations to an ae energy of -5427.407 eV
 
   ============================================================                
   | Pseudopotential Report - Date of generation 20-04-2016   |                
   ------------------------------------------------------------                
   | Element: Mg Ionic charge: 10.00 Level of theory: LDA     |                
   | Atomic Solver: Koelling-Harmon                           |                
   |                                                          |                
   |               Reference Electronic Structure             |                
   |         Orbital         Occupation         Energy        |                
   |            2s              2.000           -2.914        |                
   |            2p              6.000           -1.717        |                
   |            3s              2.000           -0.176        |                
   |                                                          |                
   |                 Pseudopotential Definition               |                
   |        Beta     l      e      Rc     scheme   norm       |                
   |          1      0   -2.914   1.804     qc      0         |                
   |          2      0   -0.176   1.804     qc      0         |                
   |          3      0    0.250   1.804     qc      0         |                
   |          4      1   -1.717   1.804     qc      0         |                
   |          5      1    0.250   1.804     qc      0         |                
   |          6      2    0.000   1.804     qc      0         |                
   |          7      2    0.250   1.804     qc      0         |                
   |         loc     3    0.000   1.804     pn      0         |                
   |                                                          |                
   | Augmentation charge Rinner = 1.261                       |                
   | Partial core correction Rc = 1.261                       |                
   ------------------------------------------------------------                
   | "3|1.8|7|8|9|20U:30:21:32"                               |                
   ------------------------------------------------------------                
   |      Author: Chris J. Pickard, Cambridge University      |                
   ============================================================                
 
 Atomic calculation performed for Ca: 1s2 2s2 2p6 3s2 3p6 4s2
 
 Converged in 44 iterations to an ae energy of -18468.059 eV
 
   ============================================================                
   | Pseudopotential Report - Date of generation 20-04-2016   |                
   ------------------------------------------------------------                
   | Element: Ca Ionic charge: 10.00 Level of theory: LDA     |                
   | Atomic Solver: Koelling-Harmon                           |                
   |                                                          |                
   |               Reference Electronic Structure             |                
   |         Orbital         Occupation         Energy        |                
   |            3s              2.000           -1.721        |                
   |            3p              6.000           -1.028        |                
   |            4s              2.000           -0.142        |                
   |                                                          |                
   |                 Pseudopotential Definition               |                
   |        Beta     l      e      Rc     scheme   norm       |                
   |          1      0   -1.721   2.005     qc      0         |                
   |          2      0   -0.142   2.005     qc      0         |                
   |          3      0    0.250   2.005     qc      0         |                
   |          4      1   -1.028   2.005     qc      0         |                
   |          5      1    0.250   2.005     qc      0         |                
   |          6      2    0.000   2.005     qc      0         |                
   |          7      2    0.250   2.005     qc      0         |                
   |         loc     3    0.000   2.005     pn      0         |                
   |                                                          |                
   | Augmentation charge Rinner = 1.401                       |                
   | Partial core correction Rc = 1.401                       |                
   ------------------------------------------------------------                
   | "3|2.0|7|8|9|30U:40:31:32"                               |                
   ------------------------------------------------------------                
   |      Author: Chris J. Pickard, Cambridge University      |                
   ============================================================                
 
 Pseudo atomic calculation performed for O 2s2 2p4
 
 Converged in 28 iterations to a total energy of -424.4682 eV
 
 
 Pseudo atomic calculation performed for Mg 2s2 2p6 3s2
 
 Converged in 19 iterations to a total energy of -1684.3182 eV
 
 
 Pseudo atomic calculation performed for Ca 3s2 3p6 4s2
 
 Converged in 24 iterations to a total energy of -1001.5365 eV
 
 Calculation not parallelised.

 ************************************ Title ************************************
 MgO

 ***************************** General Parameters ******************************
  
 output verbosity                               : normal  (1)
 write checkpoint data to                       : ../MgO.check
 type of calculation                            : single point energy
 stress calculation                             : on
 density difference calculation                 : off
 electron localisation func (ELF) calculation   : off
 Hirshfeld analysis                             : off
 unlimited duration calculation
 timing information                             : on
 memory usage estimate                          : on
 write final potential to formatted file        : off
 write final density to formatted file          : off
 write BibTeX reference list                    : on
 write OTFG pseudopotential files               : on
 checkpoint writing                             : both castep_bin and check files
  
 output         length unit                     : A
 output           mass unit                     : amu
 output           time unit                     : ps
 output         charge unit                     : e
 output           spin unit                     : hbar/2
 output         energy unit                     : eV
 output          force unit                     : eV/A
 output       velocity unit                     : A/ps
 output       pressure unit                     : GPa
 output     inv_length unit                     : 1/A
 output      frequency unit                     : cm-1
 output force constant unit                     : eV/A**2
 output         volume unit                     : A**3
 output   IR intensity unit                     : (D/A)**2/amu
 output         dipole unit                     : D
 output         efield unit                     : eV/A/e
 output        entropy unit                     : J/mol/K
  
 wavefunctions paging                           : none
<<<<<<< HEAD
 random number generator seed                   : randomised (141804861)
=======
 random number generator seed                   : randomised (140528072)
>>>>>>> 2f34388e3691b545719b33756d490ad7673db5ac
 data distribution                              : optimal for this architecture
 optimization strategy                          : maximize speed(+++)

 *********************** Exchange-Correlation Parameters ***********************
  
 using functional                               : Local Density Approximation
 relativistic treatment                         : Koelling-Harmon
 DFT+D: Semi-empirical dispersion correction    : off

 ************************* Pseudopotential Parameters **************************
  
 pseudopotential representation                 : reciprocal space
 <beta|phi> representation                      : reciprocal space
 spin-orbit coupling                            : off

 **************************** Basis Set Parameters *****************************
  
 plane wave basis set cut-off                   :   280.0000   eV
 size of standard grid                          :     2.0000
 size of   fine   gmax                          :    17.1454   1/A
 finite basis set correction                    : automatic
 number of sample energies                      :          3
           sample  spacing                      :     5.0000   eV

 **************************** Electronic Parameters ****************************
  
 number of  electrons                           :  64.00    
 net charge of system                           :  0.000    
 treating system as non-spin-polarized
 number of bands                                :         38

 ********************* Electronic Minimization Parameters **********************
  
 Method: Treating system as metallic with density mixing treatment of electrons,
         and number of  SD  steps               :          1
         and number of  CG  steps               :          4
  
 total energy / atom convergence tol.           : 0.1000E-06   eV
 eigen-energy convergence tolerance             : 0.2500E-07   eV
 max force / atom convergence tol.              : ignored
 convergence tolerance window                   :          3   cycles
 max. number of SCF cycles                      :         60
 number of fixed-spin iterations                :         10
 smearing scheme                                : Gaussian
 smearing width                                 : 0.2000       eV
 Fermi energy convergence tolerance             : 0.2721E-13   eV
 periodic dipole correction                     : NONE

 ************************** Density Mixing Parameters **************************
  
 density-mixing scheme                          : Pulay
 max. length of mixing history                  :         30
 charge density mixing amplitude                : 0.8000    
 cut-off energy for mixing                      :  280.0       eV

 *********************** Population Analysis Parameters ************************
  
 Population analysis with cutoff                :  3.000       A

 *******************************************************************************
  
 
                           -------------------------------
                                      Unit Cell
                           -------------------------------
        Real Lattice(A)                      Reciprocal Lattice(1/A)
   4.2000000   0.0000000   0.0000000        1.4959965   0.0000000   0.0000000
   0.0000000   4.2000000   0.0000000        0.0000000   1.4959965   0.0000000
   0.0000000   0.0000000   4.2000000        0.0000000   0.0000000   1.4959965
 
                       Lattice parameters(A)       Cell Angles
                    a =    4.200000          alpha =   90.000000
                    b =    4.200000          beta  =   90.000000
                    c =    4.200000          gamma =   90.000000
 
                       Current cell volume =   74.088000       A**3
 
                           -------------------------------
                                     Cell Contents
                           -------------------------------
                         Total number of ions in cell =    8
                      Total number of species in cell =    3
                        Max number of any one species =    4
 
            xxxxxxxxxxxxxxxxxxxxxxxxxxxxxxxxxxxxxxxxxxxxxxxxxxxxxxxxxxxx
            x  Element    Atom        Fractional coordinates of atoms  x
            x            Number           u          v          w      x
            x----------------------------------------------------------x
            x  O            1         0.500000   0.500000   0.500000   x 
            x  O            2         0.500000   0.000000   0.000000   x 
            x  O            3         0.500000   0.000000   0.500000   x 
            x  O            4         0.500000   0.500000   0.000000   x 
            x  Mg           1         0.000000   0.500000   0.000000   x 
            x  Mg           2         0.000000   0.500000   0.500000   x 
            x  Ca           1         0.000000   0.000000   0.500000   x 
            x  Ca           2         0.000000   0.000000   0.000000   x 
            xxxxxxxxxxxxxxxxxxxxxxxxxxxxxxxxxxxxxxxxxxxxxxxxxxxxxxxxxxxx
 
 
                         No user defined ionic velocities
 
                           -------------------------------
                                   Details of Species
                           -------------------------------
 
                               Mass of species in AMU
                                    O   15.9994000
                                    Mg   24.3050000
                                    Ca   40.0780000
 
                          Electric Quadrupole Moment (Barn)
                                    O   -0.0255800 Isotope 17
                                    Mg    0.1994000 Isotope 25
                                    Ca   -0.0408000 Isotope 43
 
                          Files used for pseudopotentials:
                                    O 2|1.1|15|18|20|20:21(qc=7)
                                    Mg 3|1.8|7|8|9|20U:30:21:32
                                    Ca 3|2.0|7|8|9|30U:40:31:32
 
                           -------------------------------
                              k-Points For BZ Sampling
                           -------------------------------
                       MP grid size for SCF calculation is  3  3  3
                            with an offset of   0.000  0.000  0.000
                       Number of kpoints used =             8
 
                           -------------------------------
                               Symmetry and Constraints
                           -------------------------------
 
                      Cell is a supercell containing 2 primitive cells
                      Maximum deviation from symmetry = 0.940008E-15     ANG
 
                      Number of symmetry operations   =          16
                      Number of ionic constraints     =           3
                      Point group of crystal =     8: D2h, mmm, 2/m 2/m 2/m
                      Space group of crystal =    47: Pmmm, -P 2 2
 
             Set iprint > 1 for details on symmetry rotations/translations
 
                         Centre of mass is constrained
             Set iprint > 1 for details of linear ionic constraints
 
                         Number of cell constraints= 5
                         Cell constraints are:  1 1 1 0 0 0
 
                         External pressure/stress (GPa)
                          0.00000   0.00000   0.00000
                                    0.00000   0.00000
                                              0.00000
  
+---------------- MEMORY AND SCRATCH DISK ESTIMATES PER PROCESS --------------+
|                                                     Memory          Disk    |
| Baseline code, static data and system overhead      146.0 MB         0.0 MB |
| BLAS internal memory storage                          0.0 MB         0.0 MB |
| Model and support data                              100.7 MB         0.0 MB |
| Electronic energy minimisation requirements          11.1 MB         0.0 MB |
| Force calculation requirements                        1.8 MB         0.0 MB |
| Stress calculation requirements                       2.1 MB         0.0 MB |
|                                               ----------------------------- |
| Approx. total storage required per process          257.8 MB         0.0 MB |
|                                                                             |
| Requirements will fluctuate during execution and may exceed these estimates |
+-----------------------------------------------------------------------------+
Calculating finite basis set correction with  3 cut-off energies.
Calculating total energy with cut-off of  270.000eV.
------------------------------------------------------------------------ <-- SCF
SCF loop      Energy           Fermi           Energy gain       Timer   <-- SCF
                               energy          per atom          (sec)   <-- SCF
------------------------------------------------------------------------ <-- SCF
<<<<<<< HEAD
Initial  -5.72546721E+003  0.00000000E+000                        11.10  <-- SCF
      1  -6.92029021E+003  1.00034962E+001   1.49352875E+002      11.74  <-- SCF
      2  -7.07951808E+003  8.91960438E+000   1.99034835E+001      12.29  <-- SCF
      3  -7.08380994E+003  8.69868979E+000   5.36482954E-001      12.85  <-- SCF
      4  -7.09412014E+003  8.46887038E+000   1.28877434E+000      13.50  <-- SCF
      5  -7.08103398E+003  8.76771730E+000  -1.63576966E+000      14.11  <-- SCF
      6  -7.08091475E+003  9.06641096E+000  -1.49039381E-002      14.74  <-- SCF
      7  -7.08043595E+003  8.73204364E+000  -5.98494948E-002      15.36  <-- SCF
      8  -7.08043116E+003  8.75238893E+000  -5.98443626E-004      15.98  <-- SCF
      9  -7.08043071E+003  8.74609722E+000  -5.67637568E-005      16.57  <-- SCF
     10  -7.08043057E+003  8.74988562E+000  -1.73170125E-005      17.13  <-- SCF
     11  -7.08043055E+003  8.74871829E+000  -2.62160408E-006      17.66  <-- SCF
     12  -7.08043055E+003  8.74859285E+000   5.75706820E-008      18.06  <-- SCF
     13  -7.08043055E+003  8.74863603E+000   7.34724376E-010      18.44  <-- SCF
------------------------------------------------------------------------ <-- SCF
 
Final energy, E             =  -7080.314329829     eV
Final free energy (E-TS)    =  -7080.430551613     eV
(energies not corrected for finite basis set)
 
NB est. 0K energy (E-0.5TS)      =  -7080.372440721     eV
=======
Initial  -5.74338664E+003  0.00000000E+000                        10.98  <-- SCF
      1  -6.92249238E+003  9.96847940E+000   1.47388217E+002      11.62  <-- SCF
      2  -7.07977114E+003  8.81710366E+000   1.96598460E+001      12.17  <-- SCF
      3  -7.08382224E+003  8.69599576E+000   5.06386442E-001      12.73  <-- SCF
      4  -7.09379365E+003  8.46966961E+000   1.24642677E+000      13.34  <-- SCF
      5  -7.08102904E+003  8.77546054E+000  -1.59557634E+000      13.89  <-- SCF
      6  -7.08089883E+003  9.06450258E+000  -1.62758586E-002      14.50  <-- SCF
      7  -7.08043666E+003  8.73200642E+000  -5.77714374E-002      15.09  <-- SCF
      8  -7.08043115E+003  8.75233245E+000  -6.88907989E-004      15.69  <-- SCF
      9  -7.08043072E+003  8.74605648E+000  -5.36612124E-005      16.27  <-- SCF
     10  -7.08043057E+003  8.74988024E+000  -1.86369222E-005      16.82  <-- SCF
     11  -7.08043055E+003  8.74870712E+000  -2.49775681E-006      17.32  <-- SCF
     12  -7.08043055E+003  8.74859579E+000   5.55704915E-008      17.69  <-- SCF
     13  -7.08043055E+003  8.74863582E+000   9.34453398E-010      18.06  <-- SCF
------------------------------------------------------------------------ <-- SCF
 
Final energy, E             =  -7080.314329976     eV
Final free energy (E-TS)    =  -7080.430551859     eV
(energies not corrected for finite basis set)
 
NB est. 0K energy (E-0.5TS)      =  -7080.372440918     eV
>>>>>>> 2f34388e3691b545719b33756d490ad7673db5ac
 
Calculating total energy with cut-off of  275.000eV.
------------------------------------------------------------------------ <-- SCF
SCF loop      Energy           Fermi           Energy gain       Timer   <-- SCF
                               energy          per atom          (sec)   <-- SCF
------------------------------------------------------------------------ <-- SCF
<<<<<<< HEAD
Initial  -7.08031433E+003  0.00000000E+000                        18.62  <-- SCF
      1  -7.08364390E+003  8.64191360E+000   4.16195786E-001      19.12  <-- SCF
      2  -7.08365264E+003  8.64192984E+000   1.09292864E-003      19.75  <-- SCF
      3  -7.08385132E+003  9.07833558E+000   2.48356791E-002      20.33  <-- SCF
      4  -7.08362270E+003  8.78443364E+000  -2.85778636E-002      20.92  <-- SCF
      5  -7.08361281E+003  8.76432845E+000  -1.23684265E-003      21.54  <-- SCF
      6  -7.08361165E+003  8.73978228E+000  -1.45121549E-004      22.16  <-- SCF
      7  -7.08361120E+003  8.74674055E+000  -5.59733602E-005      22.73  <-- SCF
      8  -7.08361120E+003  8.74778273E+000  -1.55960137E-007      23.24  <-- SCF
      9  -7.08361120E+003  8.74795244E+000  -1.33091454E-008      23.61  <-- SCF
     10  -7.08361120E+003  8.74788285E+000  -1.40835062E-009      23.98  <-- SCF
------------------------------------------------------------------------ <-- SCF
 
Final energy, E             =  -7083.505649818     eV
Final free energy (E-TS)    =  -7083.611197200     eV
(energies not corrected for finite basis set)
 
NB est. 0K energy (E-0.5TS)      =  -7083.558423509     eV
=======
Initial  -7.08031433E+003  0.00000000E+000                        18.24  <-- SCF
      1  -7.08364390E+003  8.64191457E+000   4.16195679E-001      18.76  <-- SCF
      2  -7.08365264E+003  8.64193090E+000   1.09290005E-003      19.41  <-- SCF
      3  -7.08385132E+003  9.07832976E+000   2.48353948E-002      19.99  <-- SCF
      4  -7.08362271E+003  8.78443813E+000  -2.85769321E-002      20.58  <-- SCF
      5  -7.08361281E+003  8.76432810E+000  -1.23740482E-003      21.19  <-- SCF
      6  -7.08361165E+003  8.73978274E+000  -1.45066661E-004      21.80  <-- SCF
      7  -7.08361120E+003  8.74674060E+000  -5.59653993E-005      22.37  <-- SCF
      8  -7.08361120E+003  8.74778273E+000  -1.55935388E-007      22.88  <-- SCF
      9  -7.08361120E+003  8.74795245E+000  -1.33101121E-008      23.26  <-- SCF
     10  -7.08361120E+003  8.74788285E+000  -1.41028411E-009      23.63  <-- SCF
------------------------------------------------------------------------ <-- SCF
 
Final energy, E             =  -7083.505650064     eV
Final free energy (E-TS)    =  -7083.611197446     eV
(energies not corrected for finite basis set)
 
NB est. 0K energy (E-0.5TS)      =  -7083.558423755     eV
>>>>>>> 2f34388e3691b545719b33756d490ad7673db5ac
 
Calculating total energy with cut-off of  280.000eV.
------------------------------------------------------------------------ <-- SCF
SCF loop      Energy           Fermi           Energy gain       Timer   <-- SCF
                               energy          per atom          (sec)   <-- SCF
------------------------------------------------------------------------ <-- SCF
<<<<<<< HEAD
Initial  -7.08350565E+003  0.00000000E+000                        24.16  <-- SCF
      1  -7.08597089E+003  8.66598056E+000   3.08155419E-001      24.64  <-- SCF
      2  -7.08598022E+003  8.66617245E+000   1.16638686E-003      25.21  <-- SCF
      3  -7.08605180E+003  8.87765086E+000   8.94714340E-003      25.80  <-- SCF
      4  -7.08596460E+003  8.73893543E+000  -1.09004992E-002      26.39  <-- SCF
      5  -7.08596118E+003  8.72598266E+000  -4.27340019E-004      26.99  <-- SCF
      6  -7.08596055E+003  8.72456334E+000  -7.83081644E-005      27.56  <-- SCF
      7  -7.08596054E+003  8.72569063E+000  -1.16056985E-006      28.10  <-- SCF
      8  -7.08596054E+003  8.72588559E+000  -3.95107701E-008      28.48  <-- SCF
      9  -7.08596054E+003  8.72584419E+000   4.28266972E-010      28.85  <-- SCF
------------------------------------------------------------------------ <-- SCF
 
Final energy, E             =  -7085.882561249     eV
Final free energy (E-TS)    =  -7085.960542631     eV
(energies not corrected for finite basis set)
 
NB est. 0K energy (E-0.5TS)      =  -7085.921551940     eV
=======
Initial  -7.08350565E+003  0.00000000E+000                        23.81  <-- SCF
      1  -7.08597089E+003  8.66598055E+000   3.08155422E-001      24.29  <-- SCF
      2  -7.08598022E+003  8.66617244E+000   1.16638535E-003      24.84  <-- SCF
      3  -7.08605180E+003  8.87765102E+000   8.94715854E-003      25.42  <-- SCF
      4  -7.08596460E+003  8.73893543E+000  -1.09005172E-002      26.00  <-- SCF
      5  -7.08596118E+003  8.72598267E+000  -4.27339309E-004      26.59  <-- SCF
      6  -7.08596055E+003  8.72456334E+000  -7.83082220E-005      27.14  <-- SCF
      7  -7.08596054E+003  8.72569063E+000  -1.16059557E-006      27.68  <-- SCF
      8  -7.08596054E+003  8.72588559E+000  -3.95103834E-008      28.05  <-- SCF
      9  -7.08596054E+003  8.72584419E+000   4.29040366E-010      28.41  <-- SCF
------------------------------------------------------------------------ <-- SCF
 
Final energy, E             =  -7085.882561495     eV
Final free energy (E-TS)    =  -7085.960542876     eV
(energies not corrected for finite basis set)
 
NB est. 0K energy (E-0.5TS)      =  -7085.921552186     eV
>>>>>>> 2f34388e3691b545719b33756d490ad7673db5ac
 
 For future reference: finite basis dEtot/dlog(Ecut) =    -137.587049eV
 Total energy corrected for finite basis set =   -7086.115896 eV
 
 ***************** Symmetrised Forces *****************
 *                                                    *
 *            Cartesian components (eV/A)             *
 * -------------------------------------------------- *
 *                   x            y            z      *
 *                                                    *
 * O         1      0.00000      0.00000      0.00000 *
 * O         2      0.00000      0.00000      0.00000 *
 * O         3      0.00000      0.00000      0.00000 *
 * O         4      0.00000      0.00000      0.00000 *
 * Mg        1      0.00000      0.00000      0.00000 *
 * Mg        2      0.00000      0.00000      0.00000 *
 * Ca        1      0.00000      0.00000      0.00000 *
 * Ca        2      0.00000      0.00000      0.00000 *
 *                                                    *
 ******************************************************
 
 *********** Symmetrised Stress Tensor ***********
 *                                               *
 *          Cartesian components (GPa)           *
 * --------------------------------------------- *
 *             x             y             z     *
 *                                               *
<<<<<<< HEAD
 *  x     -5.360587      0.000000      0.000000  *
=======
 *  x     -5.360586      0.000000      0.000000  *
 *  y      0.000000   -133.934616      0.000000  *
 *  z      0.000000      0.000000   -138.726281  *
 *                                               *
 *  Pressure:   92.6738                          *
 *                                               *
 *************************************************
 
 Pseudo atomic calculation performed for O 2s2 2p4
 
 Converged in 28 iterations to a total energy of -424.4682 eV
 
 
 Pseudo atomic calculation performed for Mg 2s2 2p6 3s2
 
 Converged in 19 iterations to a total energy of -1684.3182 eV
 
 
 Pseudo atomic calculation performed for Ca 3s2 3p6 4s2
 
 Converged in 24 iterations to a total energy of -1001.5365 eV
 
Charge spilling parameter for spin component 1 = 0.36%
 
     Atomic Populations (Mulliken)
     -----------------------------
Species   Ion     s      p      d      f     Total  Charge (e)
==============================================================
  O        1     1.95   4.50   0.00   0.00   6.44    -0.44
  O        2     1.93   4.53   0.00   0.00   6.46    -0.46
  O        3     1.93   4.53   0.00   0.00   6.46    -0.46
  O        4     1.95   4.50   0.00   0.00   6.44    -0.44
  Mg       1     2.66   7.10   0.00   0.00   9.76     0.24
  Mg       2     2.66   7.10   0.00   0.00   9.76     0.24
  Ca       1     1.67   5.85   1.81   0.00   9.34     0.66
  Ca       2     1.67   5.85   1.81   0.00   9.34     0.66
==============================================================
 
            Bond              Population      Length (A)
============================================================
         Ca 1 -- Ca 2              0.18        2.10000
         Mg 2 -- Ca 1             -1.30        2.10000
         Mg 1 -- Ca 2             -1.30        2.10000
         Mg 1 -- Mg 2              0.18        2.10000
          O 4 -- Mg 1              1.15        2.10000
          O 3 -- Ca 1              0.55        2.10000
          O 2 -- Ca 2              0.55        2.10000
          O 2 -- O 4              -0.08        2.10000
          O 2 -- O 3              -0.11        2.10000
          O 1 -- Mg 2              1.15        2.10000
          O 1 -- O 4              -0.03        2.10000
          O 1 -- O 3              -0.08        2.10000
         Mg 2 -- Ca 2             -2.14        2.96985
         Mg 1 -- Ca 1             -2.14        2.96985
          O 4 -- Ca 2             -0.27        2.96985
          O 4 -- Mg 2             -0.70        2.96985
          O 3 -- Ca 2             -0.02        2.96985
          O 3 -- Mg 2             -0.05        2.96985
          O 3 -- O 4              -0.10        2.96985
          O 2 -- Ca 1             -0.02        2.96985
          O 2 -- Mg 1             -0.05        2.96985
          O 1 -- Ca 1             -0.27        2.96985
          O 1 -- Mg 1             -0.70        2.96985
          O 1 -- O 2              -0.10        2.96985
============================================================
 

Writing analysis data to ../MgO.castep_bin

Writing model to ../MgO.check
 
 A BibTeX formatted list of references used in this run has been written to 
 ../MgO.bib
 
Initialisation time =      9.61 s
Calculation time    =     20.49 s
Finalisation time   =      1.98 s
Total time          =     32.08 s
Peak Memory Use     = 604568 kB
 +-------------------------------------------------+
 |                                                 |
 |      CCC   AA    SSS  TTTTT  EEEEE  PPPP        |
 |     C     A  A  S       T    E      P   P       |
 |     C     AAAA   SS     T    EEE    PPPP        |
 |     C     A  A     S    T    E      P           |
 |      CCC  A  A  SSS     T    EEEEE  P           |
 |                                                 |
 +-------------------------------------------------+
 |                                                 |
 | Welcome to Academic Release CASTEP version 9.0  |
 | Ab Initio Total Energy Program                  |
 |                                                 |
 | Authors:                                        |
 | M. Segall, M. Probert, C. Pickard, P. Hasnip,   |
 | S. Clark, K. Refson, J. R. Yates, M. Payne      |
 |                                                 |
 | Contributors:                                   |
 | P. Lindan, P. Haynes, J. White, V. Milman,      |
 | N. Govind, M. Gibson, P. Tulip, V. Cocula,      |
 | B. Montanari, D. Quigley, M. Glover,            |
 | L. Bernasconi, A. Perlov, M. Plummer,           |
 | E. McNellis, J. Meyer, J. Gale, D. Jochym       |
 | J. Aarons, B. Walker, R. Gillen, D. Jones       |
 | T. Green, I. J. Bush, C. J. Armstrong,          |
 | E. J. Higgins, M. D. Hodgson                    |
 |                                                 |
 | Copyright (c) 2000 - 2015                       |
 |                                                 |
 |     Distributed under the terms of an           |
 |     Agreement between the United Kingdom        |
 |     Car-Parrinello (UKCP) Consortium,           |
 |     Daresbury Laboratory and Accelrys, Inc.     |
 |                                                 |
 | Please cite                                     |
 |                                                 |
 |     "First principles methods using CASTEP"     |
 |                                                 |
 |         Zeitschrift fuer Kristallographie       |
 |           220(5-6) pp. 567-570 (2005)           |
 |                                                 |
 | S. J. Clark, M. D. Segall, C. J. Pickard,       |
 | P. J. Hasnip, M. J. Probert, K. Refson,         |
 | M. C. Payne                                     |
 |                                                 |
 |       in all publications arising from          |
 |              your use of CASTEP                 |
 |                                                 |
 +-------------------------------------------------+
 
 
 Compiled for linux_x86_64_ifort12 on Fri, 09 Oct 2015 16:14:59 +0100
 from code version 01cdeb6dcbec+  Thu, 01 Oct 2015 17:06:55 +0100
 Compiler: Intel Fortran 12.1.5.339; Optimisation: fast
 MATHLIBS: Intel MKL(11.0.5) (LAPACK version 3.4.1)
 FFT Lib : default
 Fundamental constants values: CODATA 2010
 
 Run started: Wed, 20 Apr 2016 14:06:34 +0100
 
 Atomic calculation performed for O: 1s2 2s2 2p4
 
 Converged in 60 iterations to an ae energy of -2027.926 eV
 
   ============================================================                
   | Pseudopotential Report - Date of generation 20-04-2016   |                
   ------------------------------------------------------------                
   | Element: O Ionic charge:  6.00 Level of theory: LDA      |                
   | Atomic Solver: Koelling-Harmon                           |                
   |                                                          |                
   |               Reference Electronic Structure             |                
   |         Orbital         Occupation         Energy        |                
   |            2s              2.000           -0.873        |                
   |            2p              4.000           -0.338        |                
   |                                                          |                
   |                 Pseudopotential Definition               |                
   |        Beta     l      e      Rc     scheme   norm       |                
   |          1      0   -0.873   1.100     qc      0         |                
   |          2      0    0.250   1.100     qc      0         |                
   |          3      1   -0.338   1.100     qc      0         |                
   |          4      1    0.250   1.100     qc      0         |                
   |         loc     2    0.000   1.100     pn      0         |                
   |                                                          |                
   | Augmentation charge Rinner = 0.769                       |                
   | Partial core correction Rc = 0.769                       |                
   ------------------------------------------------------------                
   | "2|1.1|15|18|20|20:21(qc=7)"                             |                
   ------------------------------------------------------------                
   |      Author: Chris J. Pickard, Cambridge University      |                
   ============================================================                
 
 Atomic calculation performed for Mg: 1s2 2s2 2p6 3s2
 
 Converged in 47 iterations to an ae energy of -5427.407 eV
 
   ============================================================                
   | Pseudopotential Report - Date of generation 20-04-2016   |                
   ------------------------------------------------------------                
   | Element: Mg Ionic charge: 10.00 Level of theory: LDA     |                
   | Atomic Solver: Koelling-Harmon                           |                
   |                                                          |                
   |               Reference Electronic Structure             |                
   |         Orbital         Occupation         Energy        |                
   |            2s              2.000           -2.914        |                
   |            2p              6.000           -1.717        |                
   |            3s              2.000           -0.176        |                
   |                                                          |                
   |                 Pseudopotential Definition               |                
   |        Beta     l      e      Rc     scheme   norm       |                
   |          1      0   -2.914   1.804     qc      0         |                
   |          2      0   -0.176   1.804     qc      0         |                
   |          3      0    0.250   1.804     qc      0         |                
   |          4      1   -1.717   1.804     qc      0         |                
   |          5      1    0.250   1.804     qc      0         |                
   |          6      2    0.000   1.804     qc      0         |                
   |          7      2    0.250   1.804     qc      0         |                
   |         loc     3    0.000   1.804     pn      0         |                
   |                                                          |                
   | Augmentation charge Rinner = 1.261                       |                
   | Partial core correction Rc = 1.261                       |                
   ------------------------------------------------------------                
   | "3|1.8|7|8|9|20U:30:21:32"                               |                
   ------------------------------------------------------------                
   |      Author: Chris J. Pickard, Cambridge University      |                
   ============================================================                
 
 Atomic calculation performed for Ca: 1s2 2s2 2p6 3s2 3p6 4s2
 
 Converged in 44 iterations to an ae energy of -18468.059 eV
 
   ============================================================                
   | Pseudopotential Report - Date of generation 20-04-2016   |                
   ------------------------------------------------------------                
   | Element: Ca Ionic charge: 10.00 Level of theory: LDA     |                
   | Atomic Solver: Koelling-Harmon                           |                
   |                                                          |                
   |               Reference Electronic Structure             |                
   |         Orbital         Occupation         Energy        |                
   |            3s              2.000           -1.721        |                
   |            3p              6.000           -1.028        |                
   |            4s              2.000           -0.142        |                
   |                                                          |                
   |                 Pseudopotential Definition               |                
   |        Beta     l      e      Rc     scheme   norm       |                
   |          1      0   -1.721   2.005     qc      0         |                
   |          2      0   -0.142   2.005     qc      0         |                
   |          3      0    0.250   2.005     qc      0         |                
   |          4      1   -1.028   2.005     qc      0         |                
   |          5      1    0.250   2.005     qc      0         |                
   |          6      2    0.000   2.005     qc      0         |                
   |          7      2    0.250   2.005     qc      0         |                
   |         loc     3    0.000   2.005     pn      0         |                
   |                                                          |                
   | Augmentation charge Rinner = 1.401                       |                
   | Partial core correction Rc = 1.401                       |                
   ------------------------------------------------------------                
   | "3|2.0|7|8|9|30U:40:31:32"                               |                
   ------------------------------------------------------------                
   |      Author: Chris J. Pickard, Cambridge University      |                
   ============================================================                
 
 Pseudo atomic calculation performed for O 2s2 2p4
 
 Converged in 28 iterations to a total energy of -424.4682 eV
 
 
 Pseudo atomic calculation performed for Mg 2s2 2p6 3s2
 
 Converged in 19 iterations to a total energy of -1684.3182 eV
 
 
 Pseudo atomic calculation performed for Ca 3s2 3p6 4s2
 
 Converged in 24 iterations to a total energy of -1001.5365 eV
 
 Calculation not parallelised.

 ************************************ Title ************************************
 MgO

 ***************************** General Parameters ******************************
  
 output verbosity                               : normal  (1)
 write checkpoint data to                       : ../MgO.check
 type of calculation                            : single point energy
 stress calculation                             : on
 density difference calculation                 : off
 electron localisation func (ELF) calculation   : off
 Hirshfeld analysis                             : off
 unlimited duration calculation
 timing information                             : on
 memory usage estimate                          : on
 write final potential to formatted file        : off
 write final density to formatted file          : off
 write BibTeX reference list                    : on
 write OTFG pseudopotential files               : on
 checkpoint writing                             : both castep_bin and check files
  
 output         length unit                     : A
 output           mass unit                     : amu
 output           time unit                     : ps
 output         charge unit                     : e
 output           spin unit                     : hbar/2
 output         energy unit                     : eV
 output          force unit                     : eV/A
 output       velocity unit                     : A/ps
 output       pressure unit                     : GPa
 output     inv_length unit                     : 1/A
 output      frequency unit                     : cm-1
 output force constant unit                     : eV/A**2
 output         volume unit                     : A**3
 output   IR intensity unit                     : (D/A)**2/amu
 output         dipole unit                     : D
 output         efield unit                     : eV/A/e
 output        entropy unit                     : J/mol/K
  
 wavefunctions paging                           : none
 random number generator seed                   : randomised (140634847)
 data distribution                              : optimal for this architecture
 optimization strategy                          : maximize speed(+++)

 *********************** Exchange-Correlation Parameters ***********************
  
 using functional                               : Local Density Approximation
 relativistic treatment                         : Koelling-Harmon
 DFT+D: Semi-empirical dispersion correction    : off

 ************************* Pseudopotential Parameters **************************
  
 pseudopotential representation                 : reciprocal space
 <beta|phi> representation                      : reciprocal space
 spin-orbit coupling                            : off

 **************************** Basis Set Parameters *****************************
  
 plane wave basis set cut-off                   :   280.0000   eV
 size of standard grid                          :     2.0000
 size of   fine   gmax                          :    17.1454   1/A
 finite basis set correction                    : automatic
 number of sample energies                      :          3
           sample  spacing                      :     5.0000   eV

[...]
            xxxxxxxxxxxxxxxxxxxxxxxxxxxxxxxxxxxxxxxxxxxxxxxxxxxxxxxxxxxx
 
 
                         No user defined ionic velocities
 
                           -------------------------------
                                   Details of Species
                           -------------------------------
 
                               Mass of species in AMU
                                    O   15.9994000
                                    Mg   24.3050000
                                    Ca   40.0780000
 
                          Electric Quadrupole Moment (Barn)
                                    O   -0.0255800 Isotope 17
                                    Mg    0.1994000 Isotope 25
                                    Ca   -0.0408000 Isotope 43
 
                          Files used for pseudopotentials:
                                    O 2|1.1|15|18|20|20:21(qc=7)
                                    Mg 3|1.8|7|8|9|20U:30:21:32
                                    Ca 3|2.0|7|8|9|30U:40:31:32
 
                           -------------------------------
                              k-Points For BZ Sampling
                           -------------------------------
                       MP grid size for SCF calculation is  3  3  3
                            with an offset of   0.000  0.000  0.000
                       Number of kpoints used =             8
 
                           -------------------------------
                               Symmetry and Constraints
                           -------------------------------
 
                      Cell is a supercell containing 2 primitive cells
                      Maximum deviation from symmetry = 0.940008E-15     ANG
 
                      Number of symmetry operations   =          16
                      Number of ionic constraints     =           3
                      Point group of crystal =     8: D2h, mmm, 2/m 2/m 2/m
                      Space group of crystal =    47: Pmmm, -P 2 2
 
             Set iprint > 1 for details on symmetry rotations/translations
 
                         Centre of mass is constrained
             Set iprint > 1 for details of linear ionic constraints
 
                         Number of cell constraints= 5
                         Cell constraints are:  1 1 1 0 0 0
 
                         External pressure/stress (GPa)
                          0.00000   0.00000   0.00000
                                    0.00000   0.00000
                                              0.00000
  
+---------------- MEMORY AND SCRATCH DISK ESTIMATES PER PROCESS --------------+
|                                                     Memory          Disk    |
| Baseline code, static data and system overhead      146.0 MB         0.0 MB |
| BLAS internal memory storage                          0.0 MB         0.0 MB |
| Model and support data                              100.7 MB         0.0 MB |
| Electronic energy minimisation requirements          11.1 MB         0.0 MB |
| Force calculation requirements                        1.8 MB         0.0 MB |
| Stress calculation requirements                       2.1 MB         0.0 MB |
|                                               ----------------------------- |
| Approx. total storage required per process          257.8 MB         0.0 MB |
|                                                                             |
| Requirements will fluctuate during execution and may exceed these estimates |
+-----------------------------------------------------------------------------+
Calculating finite basis set correction with  3 cut-off energies.
Calculating total energy with cut-off of  270.000eV.
------------------------------------------------------------------------ <-- SCF
SCF loop      Energy           Fermi           Energy gain       Timer   <-- SCF
                               energy          per atom          (sec)   <-- SCF
------------------------------------------------------------------------ <-- SCF
Initial  -5.72320846E+003  0.00000000E+000                        11.04  <-- SCF
      1  -6.92163622E+003  9.86513810E+000   1.49803470E+002      11.70  <-- SCF
      2  -7.07949385E+003  8.89187878E+000   1.97322027E+001      12.26  <-- SCF
      3  -7.08380421E+003  8.70940912E+000   5.38795104E-001      12.83  <-- SCF
      4  -7.09418793E+003  8.46501012E+000   1.29796500E+000      13.45  <-- SCF
      5  -7.08102012E+003  8.77038410E+000  -1.64597539E+000      14.01  <-- SCF
      6  -7.08092391E+003  9.06789579E+000  -1.20271340E-002      14.61  <-- SCF
      7  -7.08043555E+003  8.73188884E+000  -6.10450948E-002      15.21  <-- SCF
      8  -7.08043123E+003  8.75286962E+000  -5.39729724E-004      15.81  <-- SCF
      9  -7.08043072E+003  8.74592779E+000  -6.29044832E-005      16.38  <-- SCF
     10  -7.08043057E+003  8.74981449E+000  -1.93017857E-005      16.92  <-- SCF
     11  -7.08043055E+003  8.74873800E+000  -2.28741353E-006      17.42  <-- SCF
     12  -7.08043055E+003  8.74859069E+000   4.65966067E-008      17.79  <-- SCF
     13  -7.08043055E+003  8.74863385E+000   6.15041643E-010      18.15  <-- SCF
------------------------------------------------------------------------ <-- SCF
 
Final energy, E             =  -7080.314329828     eV
Final free energy (E-TS)    =  -7080.430552261     eV
(energies not corrected for finite basis set)
 
NB est. 0K energy (E-0.5TS)      =  -7080.372441044     eV
 
Calculating total energy with cut-off of  275.000eV.
------------------------------------------------------------------------ <-- SCF
SCF loop      Energy           Fermi           Energy gain       Timer   <-- SCF
                               energy          per atom          (sec)   <-- SCF
------------------------------------------------------------------------ <-- SCF
Initial  -7.08031433E+003  0.00000000E+000                        18.33  <-- SCF
      1  -7.08364389E+003  8.64192277E+000   4.16194621E-001      18.85  <-- SCF
      2  -7.08365263E+003  8.64193903E+000   1.09296007E-003      19.49  <-- SCF
      3  -7.08385127E+003  9.07827195E+000   2.48301314E-002      20.08  <-- SCF
      4  -7.08362273E+003  8.78446094E+000  -2.85677639E-002      20.67  <-- SCF
      5  -7.08361280E+003  8.76432256E+000  -1.24067435E-003      21.28  <-- SCF
      6  -7.08361165E+003  8.73978677E+000  -1.44704389E-004      21.89  <-- SCF
      7  -7.08361120E+003  8.74674150E+000  -5.58970941E-005      22.46  <-- SCF
      8  -7.08361120E+003  8.74778280E+000  -1.55560679E-007      22.97  <-- SCF
      9  -7.08361120E+003  8.74795249E+000  -1.32929041E-008      23.35  <-- SCF
     10  -7.08361120E+003  8.74788276E+000  -1.41511782E-009      23.72  <-- SCF
------------------------------------------------------------------------ <-- SCF
 
Final energy, E             =  -7083.505650455     eV
Final free energy (E-TS)    =  -7083.611197847     eV
(energies not corrected for finite basis set)
 
NB est. 0K energy (E-0.5TS)      =  -7083.558424151     eV
 
Calculating total energy with cut-off of  280.000eV.
------------------------------------------------------------------------ <-- SCF
SCF loop      Energy           Fermi           Energy gain       Timer   <-- SCF
                               energy          per atom          (sec)   <-- SCF
------------------------------------------------------------------------ <-- SCF
Initial  -7.08350565E+003  0.00000000E+000                        23.90  <-- SCF
      1  -7.08597089E+003  8.66598072E+000   3.08155402E-001      24.38  <-- SCF
      2  -7.08598022E+003  8.66617261E+000   1.16638353E-003      24.95  <-- SCF
      3  -7.08605180E+003  8.87764990E+000   8.94703771E-003      25.54  <-- SCF
      4  -7.08596460E+003  8.73893527E+000  -1.09003832E-002      26.13  <-- SCF
      5  -7.08596118E+003  8.72598258E+000  -4.27327198E-004      26.73  <-- SCF
      6  -7.08596055E+003  8.72456334E+000  -7.83105056E-005      27.30  <-- SCF
      7  -7.08596054E+003  8.72569064E+000  -1.16043702E-006      27.84  <-- SCF
      8  -7.08596054E+003  8.72588559E+000  -3.95084499E-008      28.22  <-- SCF
      9  -7.08596054E+003  8.72584418E+000   4.28266972E-010      28.59  <-- SCF
------------------------------------------------------------------------ <-- SCF
 
Final energy, E             =  -7085.882561896     eV
Final free energy (E-TS)    =  -7085.960543278     eV
(energies not corrected for finite basis set)
 
NB est. 0K energy (E-0.5TS)      =  -7085.921552587     eV
 
 For future reference: finite basis dEtot/dlog(Ecut) =    -137.587049eV
 Total energy corrected for finite basis set =   -7086.115897 eV
 
 ***************** Symmetrised Forces *****************
 *                                                    *
 *            Cartesian components (eV/A)             *
 * -------------------------------------------------- *
 *                   x            y            z      *
 *                                                    *
 * O         1      0.00000      0.00000      0.00000 *
 * O         2      0.00000      0.00000      0.00000 *
 * O         3      0.00000      0.00000      0.00000 *
 * O         4      0.00000      0.00000      0.00000 *
 * Mg        1      0.00000      0.00000      0.00000 *
 * Mg        2      0.00000      0.00000      0.00000 *
 * Ca        1      0.00000      0.00000      0.00000 *
 * Ca        2      0.00000      0.00000      0.00000 *
 *                                                    *
 ******************************************************
 
 *********** Symmetrised Stress Tensor ***********
 *                                               *
 *          Cartesian components (GPa)           *
 * --------------------------------------------- *
 *             x             y             z     *
 *                                               *
 *  x     -5.360585      0.000000      0.000000  *
 *  y      0.000000   -133.934615      0.000000  *
 *  z      0.000000      0.000000   -138.726280  *
 *                                               *
 *  Pressure:   92.6738                          *
 *                                               *
 *************************************************
 
 Pseudo atomic calculation performed for O 2s2 2p4
 
 Converged in 28 iterations to a total energy of -424.4682 eV
 
 
 Pseudo atomic calculation performed for Mg 2s2 2p6 3s2
 
 Converged in 19 iterations to a total energy of -1684.3182 eV
 
 
 Pseudo atomic calculation performed for Ca 3s2 3p6 4s2
 
 Converged in 24 iterations to a total energy of -1001.5365 eV
 
=======
 +-------------------------------------------------+
 |                                                 |
 |      CCC   AA    SSS  TTTTT  EEEEE  PPPP        |
 |     C     A  A  S       T    E      P   P       |
 |     C     AAAA   SS     T    EEE    PPPP        |
 |     C     A  A     S    T    E      P           |
 |      CCC  A  A  SSS     T    EEEEE  P           |
 |                                                 |
 +-------------------------------------------------+
 |                                                 |
 | Welcome to Academic Release CASTEP version 9.0  |
 | Ab Initio Total Energy Program                  |
 |                                                 |
 | Authors:                                        |
 | M. Segall, M. Probert, C. Pickard, P. Hasnip,   |
 | S. Clark, K. Refson, J. R. Yates, M. Payne      |
 |                                                 |
 | Contributors:                                   |
 | P. Lindan, P. Haynes, J. White, V. Milman,      |
 | N. Govind, M. Gibson, P. Tulip, V. Cocula,      |
 | B. Montanari, D. Quigley, M. Glover,            |
 | L. Bernasconi, A. Perlov, M. Plummer,           |
 | E. McNellis, J. Meyer, J. Gale, D. Jochym       |
 | J. Aarons, B. Walker, R. Gillen, D. Jones       |
 | T. Green, I. J. Bush, C. J. Armstrong,          |
 | E. J. Higgins, M. D. Hodgson                    |
 |                                                 |
 | Copyright (c) 2000 - 2015                       |
 |                                                 |
 |     Distributed under the terms of an           |
 |     Agreement between the United Kingdom        |
 |     Car-Parrinello (UKCP) Consortium,           |
 |     Daresbury Laboratory and Accelrys, Inc.     |
 |                                                 |
 | Please cite                                     |
 |                                                 |
 |     "First principles methods using CASTEP"     |
 |                                                 |
 |         Zeitschrift fuer Kristallographie       |
 |           220(5-6) pp. 567-570 (2005)           |
 |                                                 |
 | S. J. Clark, M. D. Segall, C. J. Pickard,       |
 | P. J. Hasnip, M. J. Probert, K. Refson,         |
 | M. C. Payne                                     |
 |                                                 |
 |       in all publications arising from          |
 |              your use of CASTEP                 |
 |                                                 |
 +-------------------------------------------------+
 
 
 Compiled for linux_x86_64_ifort12 on Fri, 09 Oct 2015 16:14:59 +0100
 from code version 01cdeb6dcbec+  Thu, 01 Oct 2015 17:06:55 +0100
 Compiler: Intel Fortran 12.1.5.339; Optimisation: fast
 MATHLIBS: Intel MKL(11.0.5) (LAPACK version 3.4.1)
 FFT Lib : default
 Fundamental constants values: CODATA 2010
 
 Run started: Wed, 20 Apr 2016 14:27:25 +0100
 
 Atomic calculation performed for O: 1s2 2s2 2p4
 
 Converged in 60 iterations to an ae energy of -2027.926 eV
 
=======
>>>>>>> acad02d9e7e135b58b88f80c4433ef1a20de39a3
>>>>>>> 227952b1065e3297e759a5124686fc9c4562cae9
>>>>>>> 8c7b5fbdd54feacc85555f204b68751aaf27e881
 +-------------------------------------------------+
 |                                                 |
 |      CCC   AA    SSS  TTTTT  EEEEE  PPPP        |
 |     C     A  A  S       T    E      P   P       |
 |     C     AAAA   SS     T    EEE    PPPP        |
 |     C     A  A     S    T    E      P           |
 |      CCC  A  A  SSS     T    EEEEE  P           |
 |                                                 |
 +-------------------------------------------------+
 |                                                 |
 | Welcome to Academic Release CASTEP version 9.0  |
 | Ab Initio Total Energy Program                  |
 |                                                 |
 | Authors:                                        |
 | M. Segall, M. Probert, C. Pickard, P. Hasnip,   |
 | S. Clark, K. Refson, J. R. Yates, M. Payne      |
 |                                                 |
 | Contributors:                                   |
 | P. Lindan, P. Haynes, J. White, V. Milman,      |
 | N. Govind, M. Gibson, P. Tulip, V. Cocula,      |
 | B. Montanari, D. Quigley, M. Glover,            |
 | L. Bernasconi, A. Perlov, M. Plummer,           |
 | E. McNellis, J. Meyer, J. Gale, D. Jochym       |
 | J. Aarons, B. Walker, R. Gillen, D. Jones       |
 | T. Green, I. J. Bush, C. J. Armstrong,          |
 | E. J. Higgins, M. D. Hodgson                    |
 |                                                 |
 | Copyright (c) 2000 - 2015                       |
 |                                                 |
 |     Distributed under the terms of an           |
 |     Agreement between the United Kingdom        |
 |     Car-Parrinello (UKCP) Consortium,           |
 |     Daresbury Laboratory and Accelrys, Inc.     |
 |                                                 |
 | Please cite                                     |
 |                                                 |
 |     "First principles methods using CASTEP"     |
 |                                                 |
 |         Zeitschrift fuer Kristallographie       |
 |           220(5-6) pp. 567-570 (2005)           |
 |                                                 |
 | S. J. Clark, M. D. Segall, C. J. Pickard,       |
 | P. J. Hasnip, M. J. Probert, K. Refson,         |
 | M. C. Payne                                     |
 |                                                 |
 |       in all publications arising from          |
 |              your use of CASTEP                 |
 |                                                 |
 +-------------------------------------------------+
 
 
 Compiled for linux_x86_64_ifort12 on Fri, 09 Oct 2015 16:14:59 +0100
 from code version 01cdeb6dcbec+  Thu, 01 Oct 2015 17:06:55 +0100
 Compiler: Intel Fortran 12.1.5.339; Optimisation: fast
 MATHLIBS: Intel MKL(11.0.5) (LAPACK version 3.4.1)
 FFT Lib : default
 Fundamental constants values: CODATA 2010
 
 Run started: Wed, 20 Apr 2016 14:31:21 +0100
 
 Atomic calculation performed for O: 1s2 2s2 2p4
 
 Converged in 60 iterations to an ae energy of -2027.926 eV
 
 +-------------------------------------------------+
 |                                                 |
 |      CCC   AA    SSS  TTTTT  EEEEE  PPPP        |
 |     C     A  A  S       T    E      P   P       |
 |     C     AAAA   SS     T    EEE    PPPP        |
 |     C     A  A     S    T    E      P           |
 |      CCC  A  A  SSS     T    EEEEE  P           |
 |                                                 |
 +-------------------------------------------------+
 |                                                 |
 | Welcome to Academic Release CASTEP version 9.0  |
 | Ab Initio Total Energy Program                  |
 |                                                 |
 | Authors:                                        |
 | M. Segall, M. Probert, C. Pickard, P. Hasnip,   |
 | S. Clark, K. Refson, J. R. Yates, M. Payne      |
 |                                                 |
 | Contributors:                                   |
 | P. Lindan, P. Haynes, J. White, V. Milman,      |
 | N. Govind, M. Gibson, P. Tulip, V. Cocula,      |
 | B. Montanari, D. Quigley, M. Glover,            |
 | L. Bernasconi, A. Perlov, M. Plummer,           |
 | E. McNellis, J. Meyer, J. Gale, D. Jochym       |
 | J. Aarons, B. Walker, R. Gillen, D. Jones       |
 | T. Green, I. J. Bush, C. J. Armstrong,          |
 | E. J. Higgins, M. D. Hodgson                    |
 |                                                 |
 | Copyright (c) 2000 - 2015                       |
 |                                                 |
 |     Distributed under the terms of an           |
 |     Agreement between the United Kingdom        |
 |     Car-Parrinello (UKCP) Consortium,           |
 |     Daresbury Laboratory and Accelrys, Inc.     |
 |                                                 |
 | Please cite                                     |
 |                                                 |
 |     "First principles methods using CASTEP"     |
 |                                                 |
 |         Zeitschrift fuer Kristallographie       |
 |           220(5-6) pp. 567-570 (2005)           |
 |                                                 |
 | S. J. Clark, M. D. Segall, C. J. Pickard,       |
 | P. J. Hasnip, M. J. Probert, K. Refson,         |
 | M. C. Payne                                     |
 |                                                 |
 |       in all publications arising from          |
 |              your use of CASTEP                 |
 |                                                 |
 +-------------------------------------------------+
 
 
 Compiled for linux_x86_64_ifort12 on Fri, 09 Oct 2015 16:14:59 +0100
 from code version 01cdeb6dcbec+  Thu, 01 Oct 2015 17:06:55 +0100
 Compiler: Intel Fortran 12.1.5.339; Optimisation: fast
 MATHLIBS: Intel MKL(11.0.5) (LAPACK version 3.4.1)
 FFT Lib : default
 Fundamental constants values: CODATA 2010
 
 Run started: Wed, 20 Apr 2016 14:32:09 +0100
 
 Atomic calculation performed for O: 1s2 2s2 2p4
 
 Converged in 60 iterations to an ae energy of -2027.926 eV
 
