 +-------------------------------------------------+
 |                                                 |
 |      CCC   AA    SSS  TTTTT  EEEEE  PPPP        |
 |     C     A  A  S       T    E      P   P       |
 |     C     AAAA   SS     T    EEE    PPPP        |
 |     C     A  A     S    T    E      P           |
 |      CCC  A  A  SSS     T    EEEEE  P           |
 |                                                 |
 +-------------------------------------------------+
 |                                                 |
 | Welcome to Academic Release CASTEP version 9.0  |
 | Ab Initio Total Energy Program                  |
 |                                                 |
 | Authors:                                        |
 | M. Segall, M. Probert, C. Pickard, P. Hasnip,   |
 | S. Clark, K. Refson, J. R. Yates, M. Payne      |
 |                                                 |
 | Contributors:                                   |
 | P. Lindan, P. Haynes, J. White, V. Milman,      |
 | N. Govind, M. Gibson, P. Tulip, V. Cocula,      |
 | B. Montanari, D. Quigley, M. Glover,            |
 | L. Bernasconi, A. Perlov, M. Plummer,           |
 | E. McNellis, J. Meyer, J. Gale, D. Jochym       |
 | J. Aarons, B. Walker, R. Gillen, D. Jones       |
 | T. Green, I. J. Bush, C. J. Armstrong,          |
 | E. J. Higgins, M. D. Hodgson                    |
 |                                                 |
 | Copyright (c) 2000 - 2015                       |
 |                                                 |
 |     Distributed under the terms of an           |
 |     Agreement between the United Kingdom        |
 |     Car-Parrinello (UKCP) Consortium,           |
 |     Daresbury Laboratory and Accelrys, Inc.     |
 |                                                 |
 | Please cite                                     |
 |                                                 |
 |     "First principles methods using CASTEP"     |
 |                                                 |
 |         Zeitschrift fuer Kristallographie       |
 |           220(5-6) pp. 567-570 (2005)           |
 |                                                 |
 | S. J. Clark, M. D. Segall, C. J. Pickard,       |
 | P. J. Hasnip, M. J. Probert, K. Refson,         |
 | M. C. Payne                                     |
 |                                                 |
 |       in all publications arising from          |
 |              your use of CASTEP                 |
 |                                                 |
 +-------------------------------------------------+
 
 
 Compiled for linux_x86_64_ifort12 on Fri, 09 Oct 2015 16:14:59 +0100
 from code version 01cdeb6dcbec+  Thu, 01 Oct 2015 17:06:55 +0100
 Compiler: Intel Fortran 12.1.5.339; Optimisation: fast
 MATHLIBS: Intel MKL(11.0.5) (LAPACK version 3.4.1)
 FFT Lib : default
 Fundamental constants values: CODATA 2010
 
 Run started: Thu, 21 Apr 2016 12:44:14 +0100
 +-------------------------------------------------+
 |                                                 |
 |      CCC   AA    SSS  TTTTT  EEEEE  PPPP        |
 |     C     A  A  S       T    E      P   P       |
 |     C     AAAA   SS     T    EEE    PPPP        |
 |     C     A  A     S    T    E      P           |
 |      CCC  A  A  SSS     T    EEEEE  P           |
 |                                                 |
 +-------------------------------------------------+
 |                                                 |
 | Welcome to Academic Release CASTEP version 9.0  |
 | Ab Initio Total Energy Program                  |
 |                                                 |
 | Authors:                                        |
 | M. Segall, M. Probert, C. Pickard, P. Hasnip,   |
 | S. Clark, K. Refson, J. R. Yates, M. Payne      |
 |                                                 |
 | Contributors:                                   |
 | P. Lindan, P. Haynes, J. White, V. Milman,      |
 | N. Govind, M. Gibson, P. Tulip, V. Cocula,      |
 | B. Montanari, D. Quigley, M. Glover,            |
 | L. Bernasconi, A. Perlov, M. Plummer,           |
 | E. McNellis, J. Meyer, J. Gale, D. Jochym       |
 | J. Aarons, B. Walker, R. Gillen, D. Jones       |
 | T. Green, I. J. Bush, C. J. Armstrong,          |
 | E. J. Higgins, M. D. Hodgson                    |
 |                                                 |
 | Copyright (c) 2000 - 2015                       |
 |                                                 |
 |     Distributed under the terms of an           |
 |     Agreement between the United Kingdom        |
 |     Car-Parrinello (UKCP) Consortium,           |
 |     Daresbury Laboratory and Accelrys, Inc.     |
 |                                                 |
 | Please cite                                     |
 |                                                 |
 |     "First principles methods using CASTEP"     |
 |                                                 |
 |         Zeitschrift fuer Kristallographie       |
 |           220(5-6) pp. 567-570 (2005)           |
 |                                                 |
 | S. J. Clark, M. D. Segall, C. J. Pickard,       |
 | P. J. Hasnip, M. J. Probert, K. Refson,         |
 | M. C. Payne                                     |
 |                                                 |
 |       in all publications arising from          |
 |              your use of CASTEP                 |
 |                                                 |
 +-------------------------------------------------+
 
 
 Compiled for linux_x86_64_ifort12 on Fri, 09 Oct 2015 16:14:59 +0100
 from code version 01cdeb6dcbec+  Thu, 01 Oct 2015 17:06:55 +0100
 Compiler: Intel Fortran 12.1.5.339; Optimisation: fast
 MATHLIBS: Intel MKL(11.0.5) (LAPACK version 3.4.1)
 FFT Lib : default
 Fundamental constants values: CODATA 2010
 
 Run started: Thu, 21 Apr 2016 12:44:46 +0100
 +-------------------------------------------------+
 |                                                 |
 |      CCC   AA    SSS  TTTTT  EEEEE  PPPP        |
 |     C     A  A  S       T    E      P   P       |
 |     C     AAAA   SS     T    EEE    PPPP        |
 |     C     A  A     S    T    E      P           |
 |      CCC  A  A  SSS     T    EEEEE  P           |
 |                                                 |
 +-------------------------------------------------+
 |                                                 |
 | Welcome to Academic Release CASTEP version 9.0  |
 | Ab Initio Total Energy Program                  |
 |                                                 |
 | Authors:                                        |
 | M. Segall, M. Probert, C. Pickard, P. Hasnip,   |
 | S. Clark, K. Refson, J. R. Yates, M. Payne      |
 |                                                 |
 | Contributors:                                   |
 | P. Lindan, P. Haynes, J. White, V. Milman,      |
 | N. Govind, M. Gibson, P. Tulip, V. Cocula,      |
 | B. Montanari, D. Quigley, M. Glover,            |
 | L. Bernasconi, A. Perlov, M. Plummer,           |
 | E. McNellis, J. Meyer, J. Gale, D. Jochym       |
 | J. Aarons, B. Walker, R. Gillen, D. Jones       |
 | T. Green, I. J. Bush, C. J. Armstrong,          |
 | E. J. Higgins, M. D. Hodgson                    |
 |                                                 |
 | Copyright (c) 2000 - 2015                       |
 |                                                 |
 |     Distributed under the terms of an           |
 |     Agreement between the United Kingdom        |
 |     Car-Parrinello (UKCP) Consortium,           |
 |     Daresbury Laboratory and Accelrys, Inc.     |
 |                                                 |
 | Please cite                                     |
 |                                                 |
 |     "First principles methods using CASTEP"     |
 |                                                 |
 |         Zeitschrift fuer Kristallographie       |
 |           220(5-6) pp. 567-570 (2005)           |
 |                                                 |
 | S. J. Clark, M. D. Segall, C. J. Pickard,       |
 | P. J. Hasnip, M. J. Probert, K. Refson,         |
 | M. C. Payne                                     |
 |                                                 |
 |       in all publications arising from          |
 |              your use of CASTEP                 |
 |                                                 |
 +-------------------------------------------------+
 
 
 Compiled for linux_x86_64_ifort12 on Fri, 09 Oct 2015 16:14:59 +0100
 from code version 01cdeb6dcbec+  Thu, 01 Oct 2015 17:06:55 +0100
 Compiler: Intel Fortran 12.1.5.339; Optimisation: fast
 MATHLIBS: Intel MKL(11.0.5) (LAPACK version 3.4.1)
 FFT Lib : default
 Fundamental constants values: CODATA 2010
 
 Run started: Thu, 21 Apr 2016 12:45:31 +0100
 +-------------------------------------------------+
 |                                                 |
 |      CCC   AA    SSS  TTTTT  EEEEE  PPPP        |
 |     C     A  A  S       T    E      P   P       |
 |     C     AAAA   SS     T    EEE    PPPP        |
 |     C     A  A     S    T    E      P           |
 |      CCC  A  A  SSS     T    EEEEE  P           |
 |                                                 |
 +-------------------------------------------------+
 |                                                 |
 | Welcome to Academic Release CASTEP version 9.0  |
 | Ab Initio Total Energy Program                  |
 |                                                 |
 | Authors:                                        |
 | M. Segall, M. Probert, C. Pickard, P. Hasnip,   |
 | S. Clark, K. Refson, J. R. Yates, M. Payne      |
 |                                                 |
 | Contributors:                                   |
 | P. Lindan, P. Haynes, J. White, V. Milman,      |
 | N. Govind, M. Gibson, P. Tulip, V. Cocula,      |
 | B. Montanari, D. Quigley, M. Glover,            |
 | L. Bernasconi, A. Perlov, M. Plummer,           |
 | E. McNellis, J. Meyer, J. Gale, D. Jochym       |
 | J. Aarons, B. Walker, R. Gillen, D. Jones       |
 | T. Green, I. J. Bush, C. J. Armstrong,          |
 | E. J. Higgins, M. D. Hodgson                    |
 |                                                 |
 | Copyright (c) 2000 - 2015                       |
 |                                                 |
 |     Distributed under the terms of an           |
 |     Agreement between the United Kingdom        |
 |     Car-Parrinello (UKCP) Consortium,           |
 |     Daresbury Laboratory and Accelrys, Inc.     |
 |                                                 |
 | Please cite                                     |
 |                                                 |
 |     "First principles methods using CASTEP"     |
 |                                                 |
 |         Zeitschrift fuer Kristallographie       |
 |           220(5-6) pp. 567-570 (2005)           |
 |                                                 |
 | S. J. Clark, M. D. Segall, C. J. Pickard,       |
 | P. J. Hasnip, M. J. Probert, K. Refson,         |
 | M. C. Payne                                     |
 |                                                 |
 |       in all publications arising from          |
 |              your use of CASTEP                 |
 |                                                 |
 +-------------------------------------------------+
 
 
 Compiled for linux_x86_64_ifort12 on Fri, 09 Oct 2015 16:14:59 +0100
 from code version 01cdeb6dcbec+  Thu, 01 Oct 2015 17:06:55 +0100
 Compiler: Intel Fortran 12.1.5.339; Optimisation: fast
 MATHLIBS: Intel MKL(11.0.5) (LAPACK version 3.4.1)
 FFT Lib : default
 Fundamental constants values: CODATA 2010
 
 Run started: Thu, 21 Apr 2016 12:46:30 +0100
 
 Atomic calculation performed for O: 1s2 2s2 2p4
 
 Converged in 60 iterations to an ae energy of -2027.926 eV
 
   ============================================================                
   | Pseudopotential Report - Date of generation 21-04-2016   |                
   ------------------------------------------------------------                
   | Element: O Ionic charge:  6.00 Level of theory: LDA      |                
   | Atomic Solver: Koelling-Harmon                           |                
   |                                                          |                
   |               Reference Electronic Structure             |                
   |         Orbital         Occupation         Energy        |                
   |            2s              2.000           -0.873        |                
   |            2p              4.000           -0.338        |                
   |                                                          |                
   |                 Pseudopotential Definition               |                
   |        Beta     l      e      Rc     scheme   norm       |                
   |          1      0   -0.873   1.100     qc      0         |                
   |          2      0    0.250   1.100     qc      0         |                
   |          3      1   -0.338   1.100     qc      0         |                
   |          4      1    0.250   1.100     qc      0         |                
   |         loc     2    0.000   1.100     pn      0         |                
   |                                                          |                
   | Augmentation charge Rinner = 0.769                       |                
   | Partial core correction Rc = 0.769                       |                
   ------------------------------------------------------------                
   | "2|1.1|15|18|20|20:21(qc=7)"                             |                
   ------------------------------------------------------------                
   |      Author: Chris J. Pickard, Cambridge University      |                
   ============================================================                
 
 Atomic calculation performed for Mg: 1s2 2s2 2p6 3s2
 
 Converged in 47 iterations to an ae energy of -5427.407 eV
 
   ============================================================                
   | Pseudopotential Report - Date of generation 21-04-2016   |                
   ------------------------------------------------------------                
   | Element: Mg Ionic charge: 10.00 Level of theory: LDA     |                
   | Atomic Solver: Koelling-Harmon                           |                
   |                                                          |                
   |               Reference Electronic Structure             |                
   |         Orbital         Occupation         Energy        |                
   |            2s              2.000           -2.914        |                
   |            2p              6.000           -1.717        |                
   |            3s              2.000           -0.176        |                
   |                                                          |                
   |                 Pseudopotential Definition               |                
   |        Beta     l      e      Rc     scheme   norm       |                
   |          1      0   -2.914   1.804     qc      0         |                
   |          2      0   -0.176   1.804     qc      0         |                
   |          3      0    0.250   1.804     qc      0         |                
   |          4      1   -1.717   1.804     qc      0         |                
   |          5      1    0.250   1.804     qc      0         |                
   |          6      2    0.000   1.804     qc      0         |                
   |          7      2    0.250   1.804     qc      0         |                
   |         loc     3    0.000   1.804     pn      0         |                
   |                                                          |                
   | Augmentation charge Rinner = 1.261                       |                
   | Partial core correction Rc = 1.261                       |                
   ------------------------------------------------------------                
   | "3|1.8|7|8|9|20U:30:21:32"                               |                
   ------------------------------------------------------------                
   |      Author: Chris J. Pickard, Cambridge University      |                
   ============================================================                
 
 Pseudo atomic calculation performed for O 2s2 2p4
 
 Converged in 28 iterations to a total energy of -424.4682 eV
 
 
 Pseudo atomic calculation performed for Mg 2s2 2p6 3s2
 
 Converged in 19 iterations to a total energy of -1684.3182 eV
 
 Calculation not parallelised.

 ************************************ Title ************************************
 MgO

 ***************************** General Parameters ******************************
  
 output verbosity                               : normal  (1)
 write checkpoint data to                       : MgO.check
 type of calculation                            : single point energy
 stress calculation                             : on
 density difference calculation                 : off
 electron localisation func (ELF) calculation   : off
 Hirshfeld analysis                             : off
 unlimited duration calculation
 timing information                             : on
 memory usage estimate                          : on
 write final potential to formatted file        : off
 write final density to formatted file          : off
 write BibTeX reference list                    : on
 write OTFG pseudopotential files               : on
 checkpoint writing                             : both castep_bin and check files
  
 output         length unit                     : A
 output           mass unit                     : amu
 output           time unit                     : ps
 output         charge unit                     : e
 output           spin unit                     : hbar/2
 output         energy unit                     : eV
 output          force unit                     : eV/A
 output       velocity unit                     : A/ps
 output       pressure unit                     : GPa
 output     inv_length unit                     : 1/A
 output      frequency unit                     : cm-1
 output force constant unit                     : eV/A**2
 output         volume unit                     : A**3
 output   IR intensity unit                     : (D/A)**2/amu
 output         dipole unit                     : D
 output         efield unit                     : eV/A/e
 output        entropy unit                     : J/mol/K
  
 wavefunctions paging                           : none
 random number generator seed                   : randomised (124630514)
 data distribution                              : optimal for this architecture
 optimization strategy                          : maximize speed(+++)

 *********************** Exchange-Correlation Parameters ***********************
  
 using functional                               : Local Density Approximation
 relativistic treatment                         : Koelling-Harmon
 DFT+D: Semi-empirical dispersion correction    : off

 ************************* Pseudopotential Parameters **************************
  
 pseudopotential representation                 : reciprocal space
 <beta|phi> representation                      : reciprocal space
 spin-orbit coupling                            : off

 **************************** Basis Set Parameters *****************************
  
 plane wave basis set cut-off                   :   280.0000   eV
 size of standard grid                          :     2.0000
 size of   fine   gmax                          :    17.1454   1/A
 finite basis set correction                    : automatic
 number of sample energies                      :          3
           sample  spacing                      :     5.0000   eV

 **************************** Electronic Parameters ****************************
  
 number of  electrons                           :  140.0    
 net charge of system                           :  0.000    
 treating system as non-spin-polarized
 number of bands                                :         84

 ********************* Electronic Minimization Parameters **********************
  
 Method: Treating system as metallic with density mixing treatment of electrons,
         and number of  SD  steps               :          1
         and number of  CG  steps               :          4
  
 total energy / atom convergence tol.           : 0.1000E-06   eV
 eigen-energy convergence tolerance             : 0.2571E-07   eV
 max force / atom convergence tol.              : ignored
 convergence tolerance window                   :          3   cycles
 max. number of SCF cycles                      :         60
 number of fixed-spin iterations                :         10
 smearing scheme                                : Gaussian
 smearing width                                 : 0.2000       eV
 Fermi energy convergence tolerance             : 0.2721E-13   eV
 periodic dipole correction                     : NONE

 ************************** Density Mixing Parameters **************************
  
 density-mixing scheme                          : Pulay
 max. length of mixing history                  :         30
 charge density mixing amplitude                : 0.8000    
 cut-off energy for mixing                      :  280.0       eV

 *********************** Population Analysis Parameters ************************
  
 Population analysis with cutoff                :  3.000       A

 *******************************************************************************
  
 
                           -------------------------------
                                      Unit Cell
                           -------------------------------
        Real Lattice(A)                      Reciprocal Lattice(1/A)
   4.2000000   0.0000000   0.0000000        1.4959965   0.0000000   0.0000000
   0.0000000   4.2000000   0.0000000        0.0000000   1.4959965   0.0000000
   0.0000000   0.0000000   4.2000000        0.0000000   0.0000000   1.4959965
 
                       Lattice parameters(A)       Cell Angles
                    a =    4.200000          alpha =   90.000000
                    b =    4.200000          beta  =   90.000000
                    c =    4.200000          gamma =   90.000000
 
                       Current cell volume =   74.088000       A**3
 
                           -------------------------------
                                     Cell Contents
                           -------------------------------
                         Total number of ions in cell =   18
                      Total number of species in cell =    2
                        Max number of any one species =   10
 
            xxxxxxxxxxxxxxxxxxxxxxxxxxxxxxxxxxxxxxxxxxxxxxxxxxxxxxxxxxxx
            x  Element    Atom        Fractional coordinates of atoms  x
            x            Number           u          v          w      x
            x----------------------------------------------------------x
            x  O            1         0.250000   0.250000   0.250000   x 
            x  O            2         0.250000   0.000000   0.000000   x 
            x  O            3         0.000000   0.250000   0.000000   x 
            x  O            4         0.000000   0.000000   0.250000   x 
            x  O            5         0.000000   0.500000   0.000000   x 
            x  O            6         0.250000   0.500000   0.000000   x 
            x  O            7         0.000000   0.500000   0.250000   x 
            x  O            8         0.250000   0.500000   0.250000   x 
            x  O            9         0.500000   0.000000   0.000000   x 
            x  O           10         0.500000   0.000000   0.250000   x 
            x  Mg           1         0.000000   0.000000   0.000000   x 
            x  Mg           2         0.000000   0.250000   0.250000   x 
            x  Mg           3         0.250000   0.000000   0.250000   x 
            x  Mg           4         0.250000   0.250000   0.000000   x 
            x  Mg           5         0.500000   0.250000   0.000000   x 
            x  Mg           6         0.500000   0.250000   0.250000   x 
            x  Mg           7         0.500000   0.500000   0.000000   x 
            x  Mg           8         0.500000   0.500000   0.250000   x 
            xxxxxxxxxxxxxxxxxxxxxxxxxxxxxxxxxxxxxxxxxxxxxxxxxxxxxxxxxxxx
 
 
                         No user defined ionic velocities
 
                           -------------------------------
                                   Details of Species
                           -------------------------------
 
                               Mass of species in AMU
                                    O   15.9994000
                                    Mg   24.3050000
 
                          Electric Quadrupole Moment (Barn)
                                    O   -0.0255800 Isotope 17
                                    Mg    0.1994000 Isotope 25
 
                          Files used for pseudopotentials:
                                    O 2|1.1|15|18|20|20:21(qc=7)
                                    Mg 3|1.8|7|8|9|20U:30:21:32
 
                           -------------------------------
                              k-Points For BZ Sampling
                           -------------------------------
                       MP grid size for SCF calculation is  3  3  3
                            with an offset of   0.000  0.000  0.000
                       Number of kpoints used =            14
 
                           -------------------------------
                               Symmetry and Constraints
                           -------------------------------
 
                      Maximum deviation from symmetry = 0.940008E-15     ANG
 
                      Number of symmetry operations   =           1
                      Number of ionic constraints     =           3
                      Point group of crystal =     1: C1, 1, 1
                      Space group of crystal =     1: P1, P 1
 
             Set iprint > 1 for details on symmetry rotations/translations
 
                         Centre of mass is constrained
             Set iprint > 1 for details of linear ionic constraints
 
                         Number of cell constraints= 5
                         Cell constraints are:  1 1 1 0 0 0
 
                         External pressure/stress (GPa)
                          0.00000   0.00000   0.00000
                                    0.00000   0.00000
                                              0.00000
  
+---------------- MEMORY AND SCRATCH DISK ESTIMATES PER PROCESS --------------+
|                                                     Memory          Disk    |
| Baseline code, static data and system overhead      146.0 MB         0.0 MB |
| BLAS internal memory storage                          0.0 MB         0.0 MB |
| Model and support data                               81.1 MB         0.0 MB |
| Electronic energy minimisation requirements          41.7 MB         0.0 MB |
| Force calculation requirements                        1.8 MB         0.0 MB |
| Stress calculation requirements                       2.1 MB         0.0 MB |
|                                               ----------------------------- |
| Approx. total storage required per process          268.8 MB         0.0 MB |
|                                                                             |
| Requirements will fluctuate during execution and may exceed these estimates |
+-----------------------------------------------------------------------------+
Calculating finite basis set correction with  3 cut-off energies.
Calculating total energy with cut-off of  270.000eV.
------------------------------------------------------------------------ <-- SCF
SCF loop      Energy           Fermi           Energy gain       Timer   <-- SCF
                               energy          per atom          (sec)   <-- SCF
------------------------------------------------------------------------ <-- SCF
Initial  -1.54185199E+004  0.00000000E+000                         7.95  <-- SCF
      1  -1.64044863E+004  1.93021232E+001   5.47759121E+001      11.57  <-- SCF
      2  -1.69790172E+004  1.72083417E+001   3.19183805E+001      15.02  <-- SCF
      3  -1.70053163E+004  1.68826770E+001   1.46106085E+000      17.70  <-- SCF
      4  -1.69316989E+004  2.15310552E+001  -4.08985614E+000      20.62  <-- SCF
      5  -1.69329306E+004  2.14646292E+001   6.84261317E-002      23.33  <-- SCF
      6  -1.69003958E+004  2.09740089E+001  -1.80748727E+000      26.53  <-- SCF
      7  -1.68987167E+004  2.09359545E+001  -9.32847951E-002      29.59  <-- SCF
      8  -1.68986577E+004  2.10050683E+001  -3.27443595E-003      32.52  <-- SCF
      9  -1.68986508E+004  2.10013636E+001  -3.82835839E-004      35.56  <-- SCF
     10  -1.68986498E+004  2.09999402E+001  -5.51603711E-005      38.54  <-- SCF
     11  -1.68986497E+004  2.10026715E+001  -7.71443013E-006      41.47  <-- SCF
     12  -1.68986497E+004  2.10014389E+001  -1.45654802E-006      44.10  <-- SCF
     13  -1.68986497E+004  2.10019901E+001  -1.73397187E-007      46.27  <-- SCF
     14  -1.68986497E+004  2.10019706E+001   9.17932841E-010      48.00  <-- SCF
     15  -1.68986497E+004  2.10019769E+001   2.70859794E-010      49.73  <-- SCF
------------------------------------------------------------------------ <-- SCF
 
Final energy, E             =  -16898.57411973     eV
Final free energy (E-TS)    =  -16898.64966301     eV
(energies not corrected for finite basis set)
 
NB est. 0K energy (E-0.5TS)      =  -16898.61189137     eV
 
Calculating total energy with cut-off of  275.000eV.
------------------------------------------------------------------------ <-- SCF
SCF loop      Energy           Fermi           Energy gain       Timer   <-- SCF
                               energy          per atom          (sec)   <-- SCF
------------------------------------------------------------------------ <-- SCF
Initial  -1.68985741E+004  0.00000000E+000                        50.23  <-- SCF
      1  -1.69079055E+004  2.08923159E+001   5.18412491E-001      53.01  <-- SCF
      2  -1.69079578E+004  2.08895284E+001   2.90431627E-003      56.31  <-- SCF
      3  -1.69079253E+004  2.10191650E+001  -1.80517790E-003      59.38  <-- SCF
      4  -1.69079003E+004  2.09478745E+001  -1.39257704E-003      62.42  <-- SCF
      5  -1.69078952E+004  2.09597095E+001  -2.80277087E-004      65.43  <-- SCF
      6  -1.69078950E+004  2.09605191E+001  -1.11188964E-005      68.40  <-- SCF
      7  -1.69078950E+004  2.09601368E+001  -2.96960984E-007      71.06  <-- SCF
      8  -1.69078950E+004  2.09602330E+001  -8.38343715E-008      73.12  <-- SCF
      9  -1.69078950E+004  2.09602283E+001  -8.96569978E-009      74.93  <-- SCF
------------------------------------------------------------------------ <-- SCF
 
Final energy, E             =  -16907.82435081     eV
Final free energy (E-TS)    =  -16907.89501053     eV
(energies not corrected for finite basis set)
 
NB est. 0K energy (E-0.5TS)      =  -16907.85968067     eV
 
Calculating total energy with cut-off of  280.000eV.
------------------------------------------------------------------------ <-- SCF
SCF loop      Energy           Fermi           Energy gain       Timer   <-- SCF
                               energy          per atom          (sec)   <-- SCF
------------------------------------------------------------------------ <-- SCF
Initial  -1.69078244E+004  0.00000000E+000                        75.42  <-- SCF
      1  -1.69145294E+004  2.08854832E+001   3.72505225E-001      78.14  <-- SCF
      2  -1.69145704E+004  2.08837180E+001   2.27681100E-003      81.23  <-- SCF
      3  -1.69145513E+004  2.09622800E+001  -1.06533482E-003      84.32  <-- SCF
      4  -1.69145431E+004  2.09183250E+001  -4.53762796E-004      87.38  <-- SCF
      5  -1.69145413E+004  2.09281122E+001  -9.71052355E-005      90.38  <-- SCF
      6  -1.69145412E+004  2.09277511E+001  -9.85795370E-006      93.34  <-- SCF
      7  -1.69145412E+004  2.09277300E+001  -3.81560329E-007      96.03  <-- SCF
      8  -1.69145411E+004  2.09276522E+001  -1.00148174E-007      98.07  <-- SCF
      9  -1.69145411E+004  2.09276782E+001  -2.04915058E-009      99.86  <-- SCF
     10  -1.69145411E+004  2.09276736E+001   3.10904420E-010     101.66  <-- SCF
------------------------------------------------------------------------ <-- SCF
 
Final energy, E             =  -16914.46850747     eV
Final free energy (E-TS)    =  -16914.54114966     eV
(energies not corrected for finite basis set)
 
NB est. 0K energy (E-0.5TS)      =  -16914.50482857     eV
 
 For future reference: finite basis dEtot/dlog(Ecut) =    -395.664795eV
 Total energy corrected for finite basis set =  -16914.987906 eV
 
 ***************** Symmetrised Forces *****************
 *                                                    *
 *            Cartesian components (eV/A)             *
 * -------------------------------------------------- *
 *                   x            y            z      *
 *                                                    *
 * O         1     -2.26134     48.15663    115.54244 *
 * O         2     67.31708   -124.81134   -129.09212 *
 * O         3   -117.88000     70.19093   -131.53097 *
 * O         4   -115.98658   -116.10167    121.34656 *
 * O         5    -52.37914     38.08176    -50.14156 *
 * O         6    -68.85773    118.95105    -81.83368 *
 * O         7    -49.25240    134.15689     56.04205 *
 * O         8    -88.56338     68.42807     91.06213 *
 * O         9     39.64624   -133.11353    -45.53903 *
 * O        10    120.45351   -122.38251     49.51877 *
 * Mg        1   -138.88437   -140.07890   -147.11419 *
 * Mg        2   -148.97278     18.84962    149.08801 *
 * Mg        3      9.35750   -157.33353    150.85564 *
 * Mg        4     23.54362     10.20942   -161.88829 *
 * Mg        5     96.67483     29.47163   -112.37119 *
 * Mg        6    150.64380     32.33741    125.83657 *
 * Mg        7    140.52269    117.23816   -113.86141 *
 * Mg        8    134.87845    107.74991    114.08025 *
 *                                                    *
 ******************************************************
 
 *********** Symmetrised Stress Tensor ***********
 *                                               *
 *          Cartesian components (GPa)           *
 * --------------------------------------------- *
 *             x             y             z     *
 *                                               *
 *  x  -3261.933170    -59.534943    -18.461091  *
 *  y    -59.534943  -3333.349453    -31.637207  *
 *  z    -18.461091    -31.637207  -2207.308687  *
 *                                               *
 *  Pressure: 2934.1971                          *
 *                                               *
 *************************************************
 
 Pseudo atomic calculation performed for O 2s2 2p4
 
 Converged in 28 iterations to a total energy of -424.4682 eV
 
 
 Pseudo atomic calculation performed for Mg 2s2 2p6 3s2
 
 Converged in 19 iterations to a total energy of -1684.3182 eV
 
Charge spilling parameter for spin component 1 = 1.68%
 
     Atomic Populations (Mulliken)
     -----------------------------
Species   Ion     s      p      d      f     Total  Charge (e)
==============================================================
  O        1     2.06   5.59   0.00   0.00   7.65    -1.65
  O        2     1.98   5.24   0.00   0.00   7.22    -1.22
  O        3     1.98   5.21   0.00   0.00   7.18    -1.18
  O        4     1.96   5.67   0.00   0.00   7.63    -1.63
  O        5     1.74   4.28   0.00   0.00   6.02    -0.02
  O        6     1.91   5.19   0.00   0.00   7.10    -1.10
  O        7     1.75   4.67   0.00   0.00   6.43    -0.43
  O        8     1.81   4.91   0.00   0.00   6.72    -0.72
  O        9     1.82   4.83   0.00   0.00   6.65    -0.65
  O       10     1.86   5.21   0.00   0.00   7.07    -1.07
  Mg       1     2.78   5.86   0.00   0.00   8.64     1.36
  Mg       2     3.13   5.36   0.00   0.00   8.49     1.51
  Mg       3     3.33   6.08   0.00   0.00   9.41     0.59
  Mg       4    -1.02   3.66   0.00   0.00   2.63     7.37
  Mg       5     6.80   6.92   0.00   0.00  13.72    -3.72
  Mg       6     3.12   5.62   0.00   0.00   8.75     1.25
  Mg       7     3.39   6.88   0.00   0.00  10.28    -0.28
  Mg       8     2.07   6.22   0.00   0.00   8.29     1.71
==============================================================
 
            Bond              Population      Length (A)
============================================================
         Mg 7 -- Mg 8            -31.49        1.05000
         Mg 6 -- Mg 8           -337.30        1.05000
         Mg 5 -- Mg 7            -69.45        1.05000
         Mg 5 -- Mg 6           -190.16        1.05000
         Mg 4 -- Mg 5           -745.21        1.05000
         O 10 -- Mg 6             -2.33        1.05000
         O 10 -- Mg 3             -4.28        1.05000
         O 9  -- Mg 5              1.55        1.05000
         O 9  -- O 10              0.05        1.05000
         O 8  -- Mg 8              6.44        1.05000
         O 7  -- Mg 2             -8.98        1.05000
         O 7  -- O 8               0.51        1.05000
         O 6  -- Mg 7             11.39        1.05000
         O 6  -- Mg 4            -16.57        1.05000
         O 6  -- O 8              -1.42        1.05000
         O 5  -- O 7               0.30        1.05000
         O 5  -- O 6               0.08        1.05000
         O 4  -- Mg 3             -5.55        1.05000
         O 4  -- Mg 2             -2.57        1.05000
         O 4  -- Mg 1             -0.40        1.05000
         O 3  -- Mg 4              3.58        1.05000
         O 3  -- Mg 2             -4.21        1.05000
         O 3  -- Mg 1              1.65        1.05000
         O 3  -- O 5               0.63        1.05000
         O 2  -- Mg 4             -6.06        1.05000
         O 2  -- Mg 3              0.85        1.05000
         O 2  -- Mg 1              0.87        1.05000
         O 2  -- O 9               0.09        1.05000
         O 1  -- Mg 6             -2.99        1.05000
         O 1  -- Mg 4            -17.32        1.05000
         O 1  -- Mg 3              7.52        1.05000
         O 1  -- Mg 2              6.28        1.05000
         O 1  -- O 8              -0.76        1.05000
         Mg 6 -- Mg 7           -315.47        1.48492
         Mg 5 -- Mg 8           -171.88        1.48492
         Mg 4 -- Mg 7           -517.30        1.48492
         Mg 4 -- Mg 6             85.12        1.48492
         Mg 3 -- Mg 6           -205.11        1.48492
         Mg 3 -- Mg 4           -279.84        1.48492
         Mg 2 -- Mg 4           -532.97        1.48492
         Mg 2 -- Mg 3              1.82        1.48492
         Mg 1 -- Mg 4             97.31        1.48492
         Mg 1 -- Mg 3           -189.65        1.48492
         Mg 1 -- Mg 2           -216.47        1.48492
         O 10 -- Mg 5             -6.77        1.48492
         O 9  -- Mg 6             -3.26        1.48492
         O 9  -- Mg 4             -0.76        1.48492
         O 9  -- Mg 3             -1.56        1.48492
         O 8  -- Mg 7              4.01        1.48492
         O 8  -- Mg 6             -8.60        1.48492
         O 8  -- Mg 4            -11.60        1.48492
         O 8  -- Mg 2              3.46        1.48492
         O 6  -- Mg 8              0.56        1.48492
         O 6  -- Mg 5             -1.36        1.48492
         O 6  -- O 7              -1.38        1.48492
         O 5  -- Mg 4              1.16        1.48492
         O 5  -- Mg 2             -2.75        1.48492
         O 5  -- O 8              -1.27        1.48492
         O 3  -- O 7              -0.74        1.48492
         O 3  -- O 6              -0.90        1.48492
         O 3  -- O 4              -0.80        1.48492
         O 2  -- Mg 5             -2.64        1.48492
         O 2  -- O 10             -1.09        1.48492
         O 2  -- O 4              -0.83        1.48492
         O 2  -- O 3              -0.76        1.48492
         O 1  -- Mg 8             -0.22        1.48492
         O 1  -- Mg 5              9.29        1.48492
         O 1  -- O 10             -0.85        1.48492
         O 1  -- O 7              -1.08        1.48492
         O 1  -- O 6              -1.02        1.48492
         O 1  -- O 4              -0.80        1.48492
         O 1  -- O 3              -0.79        1.48492
         O 1  -- O 2              -0.73        1.48492
         Mg 4 -- Mg 8             52.53        1.81865
         Mg 3 -- Mg 5             43.35        1.81865
         O 10 -- Mg 4              5.11        1.81865
         O 8  -- Mg 5              0.11        1.81865
         O 7  -- Mg 4              7.62        1.81865
         O 6  -- Mg 6             -4.67        1.81865
         O 6  -- Mg 2              9.81        1.81865
         O 4  -- Mg 4              2.93        1.81865
         O 3  -- Mg 3             -0.60        1.81865
         O 3  -- O 8              -0.16        1.81865
         O 2  -- Mg 6             -0.75        1.81865
         O 2  -- Mg 2              0.83        1.81865
         O 1  -- Mg 7             -3.16        1.81865
         O 1  -- Mg 1             -4.46        1.81865
         O 1  -- O 9              -0.17        1.81865
         O 1  -- O 5              -0.13        1.81865
         Mg 2 -- Mg 6           -112.12        2.10000
         O 10 -- Mg 8              1.58        2.10000
         O 9  -- Mg 7             -2.67        2.10000
         O 9  -- Mg 1              3.05        2.10000
         O 8  -- Mg 3              7.60        2.10000
         O 7  -- Mg 8             -2.51        2.10000
         O 5  -- Mg 7             -3.38        2.10000
         O 5  -- Mg 1              5.22        2.10000
         O 4  -- O 10             -0.05        2.10000
         O 4  -- O 7              -0.04        2.10000
         O 3  -- Mg 5             -0.93        2.10000
         O 2  -- O 6               0.01        2.10000
         Mg 3 -- Mg 8             38.75        2.34787
         Mg 2 -- Mg 8            -13.80        2.34787
         Mg 1 -- Mg 5            -40.67        2.34787
         O 10 -- Mg 2             -0.47        2.34787
         O 9  -- Mg 8              1.22        2.34787
         O 8  -- O 10              0.09        2.34787
         O 7  -- Mg 3              0.79        2.34787
         O 6  -- Mg 3             -2.38        2.34787
         O 6  -- O 9              -0.03        2.34787
         O 5  -- Mg 8             -1.20        2.34787
         O 4  -- Mg 6              1.79        2.34787
         O 4  -- O 8              -0.02        2.34787
         O 3  -- Mg 7             -2.70        2.34787
         O 3  -- Mg 6              0.84        2.34787
         O 2  -- Mg 7              3.38        2.34787
         O 2  -- O 8               0.03        2.34787
         Mg 2 -- Mg 5            160.72        2.34787
         O 10 -- Mg 7              4.26        2.34787
         O 10 -- Mg 1             -1.15        2.34787
         O 7  -- Mg 7             -4.35        2.34787
         O 7  -- Mg 6              3.47        2.34787
         O 7  -- Mg 1              2.33        2.34787
         O 6  -- Mg 1             -1.59        2.34787
         O 5  -- Mg 5             -0.59        2.34787
         O 4  -- O 9               0.00        2.34787
         O 4  -- O 5               0.04        2.34787
         O 3  -- O 9               0.03        2.34787
         O 2  -- O 5               0.01        2.34787
         Mg 1 -- Mg 6            126.50        2.57196
         O 9  -- Mg 2             -1.67        2.57196
         O 6  -- O 10              0.01        2.57196
         O 5  -- Mg 3             -3.72        2.57196
         O 3  -- Mg 8             -1.90        2.57196
         O 2  -- Mg 8             -0.58        2.57196
         Mg 3 -- Mg 7             65.82        2.57196
         Mg 2 -- Mg 7            158.69        2.57196
         O 8  -- Mg 1             -6.43        2.57196
         O 8  -- O 9               0.01        2.57196
         O 7  -- Mg 5             -1.34        2.57196
         O 5  -- Mg 6              2.23        2.57196
         O 4  -- Mg 5             -0.77        2.57196
         O 4  -- O 6              -0.01        2.57196
         O 3  -- O 10              0.03        2.57196
         O 2  -- O 7              -0.01        2.57196
         Mg 1 -- Mg 7           -161.17        2.96985
         O 7  -- O 10              0.03        2.96985
         O 5  -- O 9               0.01        2.96985
         O 4  -- Mg 8              2.20        2.96985
============================================================
 

Writing analysis data to MgO.castep_bin

Writing model to MgO.check
 
 A BibTeX formatted list of references used in this run has been written to 
 MgO.bib
 
Initialisation time =      6.88 s
Calculation time    =     99.66 s
Finalisation time   =      1.45 s
Total time          =    107.99 s
Peak Memory Use     = 511248 kB
 +-------------------------------------------------+
 |                                                 |
 |      CCC   AA    SSS  TTTTT  EEEEE  PPPP        |
 |     C     A  A  S       T    E      P   P       |
 |     C     AAAA   SS     T    EEE    PPPP        |
 |     C     A  A     S    T    E      P           |
 |      CCC  A  A  SSS     T    EEEEE  P           |
 |                                                 |
 +-------------------------------------------------+
 |                                                 |
 | Welcome to Academic Release CASTEP version 9.0  |
 | Ab Initio Total Energy Program                  |
 |                                                 |
 | Authors:                                        |
 | M. Segall, M. Probert, C. Pickard, P. Hasnip,   |
 | S. Clark, K. Refson, J. R. Yates, M. Payne      |
 |                                                 |
 | Contributors:                                   |
 | P. Lindan, P. Haynes, J. White, V. Milman,      |
 | N. Govind, M. Gibson, P. Tulip, V. Cocula,      |
 | B. Montanari, D. Quigley, M. Glover,            |
 | L. Bernasconi, A. Perlov, M. Plummer,           |
 | E. McNellis, J. Meyer, J. Gale, D. Jochym       |
 | J. Aarons, B. Walker, R. Gillen, D. Jones       |
 | T. Green, I. J. Bush, C. J. Armstrong,          |
 | E. J. Higgins, M. D. Hodgson                    |
 |                                                 |
 | Copyright (c) 2000 - 2015                       |
 |                                                 |
 |     Distributed under the terms of an           |
 |     Agreement between the United Kingdom        |
 |     Car-Parrinello (UKCP) Consortium,           |
 |     Daresbury Laboratory and Accelrys, Inc.     |
 |                                                 |
 | Please cite                                     |
 |                                                 |
 |     "First principles methods using CASTEP"     |
 |                                                 |
 |         Zeitschrift fuer Kristallographie       |
 |           220(5-6) pp. 567-570 (2005)           |
 |                                                 |
 | S. J. Clark, M. D. Segall, C. J. Pickard,       |
 | P. J. Hasnip, M. J. Probert, K. Refson,         |
 | M. C. Payne                                     |
 |                                                 |
 |       in all publications arising from          |
 |              your use of CASTEP                 |
 |                                                 |
 +-------------------------------------------------+
 
 
 Compiled for linux_x86_64_ifort12 on Fri, 09 Oct 2015 16:14:59 +0100
 from code version 01cdeb6dcbec+  Thu, 01 Oct 2015 17:06:55 +0100
 Compiler: Intel Fortran 12.1.5.339; Optimisation: fast
 MATHLIBS: Intel MKL(11.0.5) (LAPACK version 3.4.1)
 FFT Lib : default
 Fundamental constants values: CODATA 2010
 
 Run started: Thu, 21 Apr 2016 12:53:37 +0100
 
 Atomic calculation performed for O: 1s2 2s2 2p4
 
 Converged in 60 iterations to an ae energy of -2027.926 eV
 
   ============================================================                
   | Pseudopotential Report - Date of generation 21-04-2016   |                
   ------------------------------------------------------------                
   | Element: O Ionic charge:  6.00 Level of theory: LDA      |                
   | Atomic Solver: Koelling-Harmon                           |                
   |                                                          |                
   |               Reference Electronic Structure             |                
   |         Orbital         Occupation         Energy        |                
   |            2s              2.000           -0.873        |                
   |            2p              4.000           -0.338        |                
   |                                                          |                
   |                 Pseudopotential Definition               |                
   |        Beta     l      e      Rc     scheme   norm       |                
   |          1      0   -0.873   1.100     qc      0         |                
   |          2      0    0.250   1.100     qc      0         |                
   |          3      1   -0.338   1.100     qc      0         |                
   |          4      1    0.250   1.100     qc      0         |                
   |         loc     2    0.000   1.100     pn      0         |                
   |                                                          |                
   | Augmentation charge Rinner = 0.769                       |                
   | Partial core correction Rc = 0.769                       |                
   ------------------------------------------------------------                
   | "2|1.1|15|18|20|20:21(qc=7)"                             |                
   ------------------------------------------------------------                
   |      Author: Chris J. Pickard, Cambridge University      |                
   ============================================================                
 
 Atomic calculation performed for Mg: 1s2 2s2 2p6 3s2
 
 Converged in 47 iterations to an ae energy of -5427.407 eV
 
   ============================================================                
   | Pseudopotential Report - Date of generation 21-04-2016   |                
   ------------------------------------------------------------                
   | Element: Mg Ionic charge: 10.00 Level of theory: LDA     |                
   | Atomic Solver: Koelling-Harmon                           |                
   |                                                          |                
   |               Reference Electronic Structure             |                
   |         Orbital         Occupation         Energy        |                
   |            2s              2.000           -2.914        |                
   |            2p              6.000           -1.717        |                
   |            3s              2.000           -0.176        |                
   |                                                          |                
   |                 Pseudopotential Definition               |                
   |        Beta     l      e      Rc     scheme   norm       |                
   |          1      0   -2.914   1.804     qc      0         |                
   |          2      0   -0.176   1.804     qc      0         |                
   |          3      0    0.250   1.804     qc      0         |                
   |          4      1   -1.717   1.804     qc      0         |                
   |          5      1    0.250   1.804     qc      0         |                
   |          6      2    0.000   1.804     qc      0         |                
   |          7      2    0.250   1.804     qc      0         |                
   |         loc     3    0.000   1.804     pn      0         |                
   |                                                          |                
   | Augmentation charge Rinner = 1.261                       |                
   | Partial core correction Rc = 1.261                       |                
   ------------------------------------------------------------                
   | "3|1.8|7|8|9|20U:30:21:32"                               |                
   ------------------------------------------------------------                
   |      Author: Chris J. Pickard, Cambridge University      |                
   ============================================================                
 
 Pseudo atomic calculation performed for O 2s2 2p4
 
 Converged in 28 iterations to a total energy of -424.4682 eV
 
 
 Pseudo atomic calculation performed for Mg 2s2 2p6 3s2
 
 Converged in 19 iterations to a total energy of -1684.3182 eV
 
 Calculation not parallelised.

 ************************************ Title ************************************
 MgO

 ***************************** General Parameters ******************************
  
 output verbosity                               : normal  (1)
 write checkpoint data to                       : MgO.check
 type of calculation                            : single point energy
 stress calculation                             : on
 density difference calculation                 : off
 electron localisation func (ELF) calculation   : off
 Hirshfeld analysis                             : off
 unlimited duration calculation
 timing information                             : on
 memory usage estimate                          : on
 write final potential to formatted file        : off
 write final density to formatted file          : off
 write BibTeX reference list                    : on
 write OTFG pseudopotential files               : on
 checkpoint writing                             : both castep_bin and check files
  
 output         length unit                     : A
 output           mass unit                     : amu
 output           time unit                     : ps
 output         charge unit                     : e
 output           spin unit                     : hbar/2
 output         energy unit                     : eV
 output          force unit                     : eV/A
 output       velocity unit                     : A/ps
 output       pressure unit                     : GPa
 output     inv_length unit                     : 1/A
 output      frequency unit                     : cm-1
 output force constant unit                     : eV/A**2
 output         volume unit                     : A**3
 output   IR intensity unit                     : (D/A)**2/amu
 output         dipole unit                     : D
 output         efield unit                     : eV/A/e
 output        entropy unit                     : J/mol/K
  
 wavefunctions paging                           : none
 random number generator seed                   : randomised (125337837)
 data distribution                              : optimal for this architecture
 optimization strategy                          : maximize speed(+++)

 *********************** Exchange-Correlation Parameters ***********************
  
 using functional                               : Local Density Approximation
 relativistic treatment                         : Koelling-Harmon
 DFT+D: Semi-empirical dispersion correction    : off

 ************************* Pseudopotential Parameters **************************
  
 pseudopotential representation                 : reciprocal space
 <beta|phi> representation                      : reciprocal space
 spin-orbit coupling                            : off

 **************************** Basis Set Parameters *****************************
  
 plane wave basis set cut-off                   :   280.0000   eV
 size of standard grid                          :     2.0000
 size of   fine   gmax                          :    17.1454   1/A
 finite basis set correction                    : automatic
 number of sample energies                      :          3
           sample  spacing                      :     5.0000   eV

 **************************** Electronic Parameters ****************************
  
 number of  electrons                           :  140.0    
 net charge of system                           :  0.000    
 treating system as non-spin-polarized
 number of bands                                :         84

 ********************* Electronic Minimization Parameters **********************
  
 Method: Treating system as metallic with density mixing treatment of electrons,
         and number of  SD  steps               :          1
         and number of  CG  steps               :          4
  
 total energy / atom convergence tol.           : 0.1000E-06   eV
 eigen-energy convergence tolerance             : 0.2571E-07   eV
 max force / atom convergence tol.              : ignored
 convergence tolerance window                   :          3   cycles
 max. number of SCF cycles                      :         60
 number of fixed-spin iterations                :         10
 smearing scheme                                : Gaussian
 smearing width                                 : 0.2000       eV
 Fermi energy convergence tolerance             : 0.2721E-13   eV
 periodic dipole correction                     : NONE

 ************************** Density Mixing Parameters **************************
  
 density-mixing scheme                          : Pulay
 max. length of mixing history                  :         30
 charge density mixing amplitude                : 0.8000    
 cut-off energy for mixing                      :  280.0       eV

 *********************** Population Analysis Parameters ************************
  
 Population analysis with cutoff                :  3.000       A

 *******************************************************************************
  
 
                           -------------------------------
                                      Unit Cell
                           -------------------------------
        Real Lattice(A)                      Reciprocal Lattice(1/A)
   4.2000000   0.0000000   0.0000000        1.4959965   0.0000000   0.0000000
   0.0000000   4.2000000   0.0000000        0.0000000   1.4959965   0.0000000
   0.0000000   0.0000000   4.2000000        0.0000000   0.0000000   1.4959965
 
                       Lattice parameters(A)       Cell Angles
                    a =    4.200000          alpha =   90.000000
                    b =    4.200000          beta  =   90.000000
                    c =    4.200000          gamma =   90.000000
 
                       Current cell volume =   74.088000       A**3
 
                           -------------------------------
                                     Cell Contents
                           -------------------------------
                         Total number of ions in cell =   18
                      Total number of species in cell =    2
                        Max number of any one species =   10
 
            xxxxxxxxxxxxxxxxxxxxxxxxxxxxxxxxxxxxxxxxxxxxxxxxxxxxxxxxxxxx
            x  Element    Atom        Fractional coordinates of atoms  x
            x            Number           u          v          w      x
            x----------------------------------------------------------x
            x  O            1         0.250000   0.250000   0.500000   x 
            x  O            2         0.250000   0.000000   0.000000   x 
            x  O            3         0.000000   0.250000   0.000000   x 
            x  O            4         0.000000   0.000000   0.500000   x 
            x  O            5         0.000000   0.500000   0.000000   x 
            x  O            6         0.250000   0.500000   0.000000   x 
            x  O            7         0.000000   0.500000   0.500000   x 
            x  O            8         0.250000   0.500000   0.500000   x 
            x  O            9         0.500000   0.000000   0.000000   x 
            x  O           10         0.500000   0.000000   0.500000   x 
            x  Mg           1         0.000000   0.000000   0.000000   x 
            x  Mg           2         0.000000   0.250000   0.500000   x 
            x  Mg           3         0.250000   0.000000   0.500000   x 
            x  Mg           4         0.250000   0.250000   0.000000   x 
            x  Mg           5         0.500000   0.250000   0.000000   x 
            x  Mg           6         0.500000   0.250000   0.500000   x 
            x  Mg           7         0.500000   0.500000   0.000000   x 
            x  Mg           8         0.500000   0.500000   0.500000   x 
            xxxxxxxxxxxxxxxxxxxxxxxxxxxxxxxxxxxxxxxxxxxxxxxxxxxxxxxxxxxx
 
 
                         No user defined ionic velocities
 
                           -------------------------------
                                   Details of Species
                           -------------------------------
 
                               Mass of species in AMU
                                    O   15.9994000
                                    Mg   24.3050000
 
                          Electric Quadrupole Moment (Barn)
                                    O   -0.0255800 Isotope 17
                                    Mg    0.1994000 Isotope 25
 
                          Files used for pseudopotentials:
                                    O 2|1.1|15|18|20|20:21(qc=7)
                                    Mg 3|1.8|7|8|9|20U:30:21:32
 
                           -------------------------------
                              k-Points For BZ Sampling
                           -------------------------------
                       MP grid size for SCF calculation is  3  3  3
                            with an offset of   0.000  0.000  0.000
                       Number of kpoints used =            10
 
                           -------------------------------
                               Symmetry and Constraints
                           -------------------------------
 
                      Maximum deviation from symmetry = 0.940008E-15     ANG
 
                      Number of symmetry operations   =           2
                      Number of ionic constraints     =           3
                      Point group of crystal =     3: Cs, m, m
                      Space group of crystal =     6: Pm, P -2y
 
             Set iprint > 1 for details on symmetry rotations/translations
 
                         Centre of mass is constrained
             Set iprint > 1 for details of linear ionic constraints
 
                         Number of cell constraints= 5
                         Cell constraints are:  1 1 1 0 0 0
 
                         External pressure/stress (GPa)
                          0.00000   0.00000   0.00000
                                    0.00000   0.00000
                                              0.00000
  
+---------------- MEMORY AND SCRATCH DISK ESTIMATES PER PROCESS --------------+
|                                                     Memory          Disk    |
| Baseline code, static data and system overhead      146.0 MB         0.0 MB |
| BLAS internal memory storage                          0.0 MB         0.0 MB |
| Model and support data                               75.4 MB         0.0 MB |
| Electronic energy minimisation requirements          30.7 MB         0.0 MB |
| Force calculation requirements                        1.8 MB         0.0 MB |
| Stress calculation requirements                       2.1 MB         0.0 MB |
|                                               ----------------------------- |
| Approx. total storage required per process          252.2 MB         0.0 MB |
|                                                                             |
| Requirements will fluctuate during execution and may exceed these estimates |
+-----------------------------------------------------------------------------+
Calculating finite basis set correction with  3 cut-off energies.
Calculating total energy with cut-off of  270.000eV.
------------------------------------------------------------------------ <-- SCF
SCF loop      Energy           Fermi           Energy gain       Timer   <-- SCF
                               energy          per atom          (sec)   <-- SCF
------------------------------------------------------------------------ <-- SCF
Initial  -1.53119212E+004  0.00000000E+000                         6.22  <-- SCF
      1  -1.67886786E+004  2.07352046E+001   8.20420792E+001       8.73  <-- SCF
      2  -1.72237903E+004  1.82849443E+001   2.41728692E+001      11.11  <-- SCF
      3  -1.72423785E+004  1.90541422E+001   1.03267749E+000      12.99  <-- SCF
      4  -1.71926601E+004  2.23517094E+001  -2.76213357E+000      15.14  <-- SCF
      5  -1.71929329E+004  2.23366325E+001   1.51596735E-002      17.10  <-- SCF
      6  -1.71866887E+004  2.11459051E+001  -3.46903409E-001      19.22  <-- SCF
      7  -1.71834859E+004  2.12056867E+001  -1.77933547E-001      21.42  <-- SCF
      8  -1.71830438E+004  2.14613767E+001  -2.45612111E-002      23.57  <-- SCF
      9  -1.71830391E+004  2.15294949E+001  -2.56757318E-004      25.85  <-- SCF
     10  -1.71830381E+004  2.14990015E+001  -5.75763571E-005      27.96  <-- SCF
     11  -1.71830379E+004  2.15101262E+001  -9.96807144E-006      30.06  <-- SCF
     12  -1.71830379E+004  2.15091149E+001  -6.59119434E-007      31.91  <-- SCF
     13  -1.71830379E+004  2.15081941E+001  -1.53926046E-008      33.28  <-- SCF
     14  -1.71830379E+004  2.15087477E+001  -1.75175478E-008      34.57  <-- SCF
------------------------------------------------------------------------ <-- SCF
 
Final energy, E             =  -17183.00372479     eV
Final free energy (E-TS)    =  -17183.03791874     eV
(energies not corrected for finite basis set)
 
NB est. 0K energy (E-0.5TS)      =  -17183.02082177     eV
 
Calculating total energy with cut-off of  275.000eV.
------------------------------------------------------------------------ <-- SCF
SCF loop      Energy           Fermi           Energy gain       Timer   <-- SCF
                               energy          per atom          (sec)   <-- SCF
------------------------------------------------------------------------ <-- SCF
Initial  -1.71830037E+004  0.00000000E+000                        34.94  <-- SCF
      1  -1.71920553E+004  2.13798680E+001   5.02863790E-001      36.92  <-- SCF
      2  -1.71921086E+004  2.13770180E+001   2.96321672E-003      39.24  <-- SCF
      3  -1.71920989E+004  2.16409514E+001  -5.41886398E-004      41.40  <-- SCF
      4  -1.71920599E+004  2.13912576E+001  -2.16680656E-003      43.52  <-- SCF
      5  -1.71920520E+004  2.14629356E+001  -4.38494004E-004      45.65  <-- SCF
      6  -1.71920520E+004  2.14598575E+001   1.90990459E-006      47.80  <-- SCF
      7  -1.71920520E+004  2.14630067E+001  -1.33974008E-006      49.71  <-- SCF
      8  -1.71920520E+004  2.14634336E+001  -1.54835214E-008      51.11  <-- SCF
      9  -1.71920520E+004  2.14634821E+001  -6.64534567E-009      52.39  <-- SCF
------------------------------------------------------------------------ <-- SCF
 
Final energy, E             =  -17192.01619005     eV
Final free energy (E-TS)    =  -17192.05197139     eV
(energies not corrected for finite basis set)
 
NB est. 0K energy (E-0.5TS)      =  -17192.03408072     eV
 
Calculating total energy with cut-off of  280.000eV.
------------------------------------------------------------------------ <-- SCF
SCF loop      Energy           Fermi           Energy gain       Timer   <-- SCF
                               energy          per atom          (sec)   <-- SCF
------------------------------------------------------------------------ <-- SCF
Initial  -1.71920162E+004  0.00000000E+000                        52.76  <-- SCF
      1  -1.71985171E+004  2.14110620E+001   3.61160345E-001      54.75  <-- SCF
      2  -1.71985518E+004  2.14104928E+001   1.92727948E-003      56.99  <-- SCF
      3  -1.71985461E+004  2.15789279E+001  -3.15597912E-004      59.17  <-- SCF
      4  -1.71985285E+004  2.14164549E+001  -9.75207806E-004      61.33  <-- SCF
      5  -1.71985249E+004  2.14651489E+001  -1.99210115E-004      63.51  <-- SCF
      6  -1.71985250E+004  2.14615254E+001   1.44211494E-006      65.66  <-- SCF
      7  -1.71985250E+004  2.14632798E+001  -5.42991391E-007      67.52  <-- SCF
      8  -1.71985250E+004  2.14634732E+001  -1.47047995E-009      68.82  <-- SCF
      9  -1.71985250E+004  2.14634938E+001  -2.07939888E-009      70.12  <-- SCF
------------------------------------------------------------------------ <-- SCF
 
Final energy, E             =  -17198.49004330     eV
Final free energy (E-TS)    =  -17198.52496305     eV
(energies not corrected for finite basis set)
 
NB est. 0K energy (E-0.5TS)      =  -17198.50750317     eV
 
 For future reference: finite basis dEtot/dlog(Ecut) =    -385.605762eV
 Total energy corrected for finite basis set =  -17198.960361 eV
 
 ***************** Symmetrised Forces *****************
 *                                                    *
 *            Cartesian components (eV/A)             *
 * -------------------------------------------------- *
 *                   x            y            z      *
 *                                                    *
 * O         1      3.03561     74.61241      0.00000 *
 * O         2     77.32568   -130.48830      0.00000 *
 * O         3   -131.29057     78.87885      0.00000 *
 * O         4   -117.66875   -119.60372      0.00000 *
 * O         5    -30.14599     32.53958      0.00000 *
 * O         6    -79.45080    132.65616      0.00000 *
 * O         7    -37.24901    124.79573      0.00000 *
 * O         8    -93.93393     37.84229      0.00000 *
 * O         9     39.77387   -128.91500      0.00000 *
 * O        10    118.50623   -120.02503      0.00000 *
 * Mg        1   -128.96591   -129.43856      0.00000 *
 * Mg        2   -138.86910      9.11864      0.00000 *
 * Mg        3     -2.52538   -133.68849      0.00000 *
 * Mg        4     30.61430      5.80053      0.00000 *
 * Mg        5     93.75390     33.93143      0.00000 *
 * Mg        6    143.67288     30.65818      0.00000 *
 * Mg        7    128.68229    105.49783      0.00000 *
 * Mg        8    124.73467     95.82747      0.00000 *
 *                                                    *
 ******************************************************
 
 *********** Symmetrised Stress Tensor ***********
 *                                               *
 *          Cartesian components (GPa)           *
 * --------------------------------------------- *
 *             x             y             z     *
 *                                               *
 *  x  -3050.095872    -46.877466      0.000000  *
 *  y    -46.877466  -3104.209114      0.000000  *
 *  z      0.000000      0.000000   -283.710838  *
 *                                               *
 *  Pressure: 2146.0053                          *
 *                                               *
 *************************************************
 
 Pseudo atomic calculation performed for O 2s2 2p4
 
 Converged in 28 iterations to a total energy of -424.4682 eV
 
 
 Pseudo atomic calculation performed for Mg 2s2 2p6 3s2
 
 Converged in 19 iterations to a total energy of -1684.3182 eV
 
Charge spilling parameter for spin component 1 = 0.93%
 
     Atomic Populations (Mulliken)
     -----------------------------
Species   Ion     s      p      d      f     Total  Charge (e)
==============================================================
  O        1     2.01   5.19   0.00   0.00   7.21    -1.21
  O        2     1.90   5.10   0.00   0.00   7.00    -1.00
  O        3     1.94   5.08   0.00   0.00   7.02    -1.02
  O        4     1.86   5.37   0.00   0.00   7.23    -1.23
  O        5     1.71   4.51   0.00   0.00   6.22    -0.22
  O        6     1.87   5.15   0.00   0.00   7.02    -1.02
  O        7     1.73   4.99   0.00   0.00   6.71    -0.71
  O        8     1.82   4.68   0.00   0.00   6.50    -0.50
  O        9     1.77   5.07   0.00   0.00   6.84    -0.84
  O       10     1.91   5.31   0.00   0.00   7.22    -1.22
  Mg       1     2.37   5.80   0.00   0.00   8.16     1.84
  Mg       2     1.82   6.12   0.00   0.00   7.94     2.06
  Mg       3     1.49   6.46   0.00   0.00   7.95     2.05
  Mg       4     3.01   3.45   0.00   0.00   6.46     3.54
  Mg       5     5.25   6.23   0.00   0.00  11.48    -1.48
  Mg       6     4.34   8.28   0.00   0.00  12.62    -2.62
  Mg       7     2.90   6.49   0.00   0.00   9.39     0.61
  Mg       8     0.50   6.53   0.00   0.00   7.03     2.97
==============================================================
 
            Bond              Population      Length (A)
============================================================
         Mg 6 -- Mg 8           -305.63        1.05000
         Mg 5 -- Mg 7           -256.97        1.05000
         Mg 4 -- Mg 5           -363.45        1.05000
         O 10 -- Mg 6             -2.37        1.05000
         O 10 -- Mg 3              1.54        1.05000
         O 9  -- Mg 5              3.41        1.05000
         O 8  -- Mg 8              6.53        1.05000
         O 7  -- Mg 2             -1.63        1.05000
         O 7  -- O 8               0.43        1.05000
         O 6  -- Mg 7              5.85        1.05000
         O 6  -- Mg 4             -0.11        1.05000
         O 5  -- O 6               0.38        1.05000
         O 4  -- Mg 3              0.82        1.05000
         O 4  -- Mg 2             -1.89        1.05000
         O 3  -- Mg 4             -3.05        1.05000
         O 3  -- Mg 1             -1.47        1.05000
         O 3  -- O 5               0.46        1.05000
         O 2  -- Mg 4             -2.59        1.05000
         O 2  -- Mg 1             -1.20        1.05000
         O 2  -- O 9               0.32        1.05000
         O 1  -- Mg 6             -4.82        1.05000
         O 1  -- Mg 3              3.62        1.05000
         O 1  -- Mg 2             -1.91        1.05000
         O 1  -- O 8               0.81        1.05000
         Mg 4 -- Mg 7           -144.92        1.48492
         Mg 3 -- Mg 6           -130.93        1.48492
         Mg 2 -- Mg 3            -73.43        1.48492
         Mg 1 -- Mg 4           -108.36        1.48492
         O 9  -- Mg 4             -4.55        1.48492
         O 8  -- Mg 6            -13.55        1.48492
         O 8  -- Mg 2             -2.87        1.48492
         O 6  -- Mg 5            -11.23        1.48492
         O 5  -- Mg 4             -5.70        1.48492
         O 3  -- O 6              -0.62        1.48492
         O 2  -- Mg 5             -5.84        1.48492
         O 2  -- O 3              -0.55        1.48492
         O 1  -- Mg 8             -3.17        1.48492
         O 1  -- O 10             -0.58        1.48492
         O 1  -- O 7              -0.87        1.48492
         O 1  -- O 4              -0.70        1.48492
         Mg 7 -- Mg 8           -136.81        2.10000
         Mg 5 -- Mg 6            -85.16        2.10000
         Mg 2 -- Mg 6             -4.59        2.10000
         O 10 -- Mg 8              1.60        2.10000
         O 9  -- Mg 7             -3.49        2.10000
         O 9  -- Mg 1              2.51        2.10000
         O 9  -- O 10             -0.36        2.10000
         O 8  -- Mg 3              4.99        2.10000
         O 7  -- Mg 8             -0.11        2.10000
         O 6  -- O 8              -0.20        2.10000
         O 5  -- Mg 7             -0.06        2.10000
         O 5  -- Mg 1              2.12        2.10000
         O 5  -- O 7              -0.31        2.10000
         O 4  -- Mg 1              3.93        2.10000
         O 4  -- O 10             -0.06        2.10000
         O 4  -- O 7              -0.04        2.10000
         O 3  -- Mg 5              2.42        2.10000
         O 3  -- Mg 2              3.13        2.10000
         O 2  -- Mg 3              6.94        2.10000
         O 2  -- O 6               0.09        2.10000
         O 1  -- Mg 4              6.02        2.10000
         Mg 6 -- Mg 7            132.12        2.34787
         Mg 5 -- Mg 8             60.71        2.34787
         Mg 4 -- Mg 6            -33.59        2.34787
         Mg 3 -- Mg 8              4.62        2.34787
         Mg 3 -- Mg 4            -42.04        2.34787
         Mg 2 -- Mg 8             -4.50        2.34787
         Mg 2 -- Mg 4              0.21        2.34787
         Mg 1 -- Mg 5             -8.84        2.34787
         Mg 1 -- Mg 3              7.81        2.34787
         Mg 1 -- Mg 2              3.12        2.34787
         O 10 -- Mg 5              0.33        2.34787
         O 10 -- Mg 2             -2.16        2.34787
         O 9  -- Mg 6             -1.10        2.34787
         O 8  -- Mg 7              1.38        2.34787
         O 8  -- O 10              0.01        2.34787
         O 7  -- Mg 3             -0.60        2.34787
         O 6  -- Mg 8              0.55        2.34787
         O 6  -- O 9               0.00        2.34787
         O 5  -- O 8               0.02        2.34787
         O 4  -- Mg 6             -3.55        2.34787
         O 4  -- O 8               0.00        2.34787
         O 3  -- Mg 7             -1.36        2.34787
         O 3  -- O 7              -0.07        2.34787
         O 2  -- Mg 7              4.70        2.34787
         O 2  -- O 10             -0.04        2.34787
         O 1  -- Mg 5             -5.28        2.34787
         O 1  -- O 6               0.07        2.34787
         O 9  -- Mg 3             -0.45        2.34787
         O 8  -- Mg 4             -0.39        2.34787
         O 7  -- Mg 6              0.42        2.34787
         O 6  -- Mg 1              1.43        2.34787
         O 6  -- O 7               0.00        2.34787
         O 5  -- Mg 5              1.13        2.34787
         O 5  -- Mg 2              0.56        2.34787
         O 3  -- O 9               0.05        2.34787
         O 3  -- O 4              -0.20        2.34787
         O 2  -- O 5               0.05        2.34787
         O 2  -- O 4              -0.22        2.34787
         O 1  -- O 3              -0.05        2.34787
         O 1  -- O 2              -0.03        2.34787
         Mg 4 -- Mg 8             44.20        2.57196
         Mg 3 -- Mg 5              0.41        2.57196
         O 10 -- Mg 4             -2.00        2.57196
         O 8  -- Mg 5             -1.80        2.57196
         O 7  -- Mg 4              2.35        2.57196
         O 6  -- Mg 6             -1.18        2.57196
         O 6  -- Mg 2             -0.20        2.57196
         O 4  -- Mg 4             -2.97        2.57196
         O 3  -- Mg 3             -0.92        2.57196
         O 3  -- O 8               0.06        2.57196
         O 2  -- Mg 6             -3.34        2.57196
         O 2  -- Mg 2             -3.25        2.57196
         O 1  -- Mg 7             -1.65        2.57196
         O 1  -- Mg 1             -0.94        2.57196
[...]
   |                 Pseudopotential Definition               |                
   |        Beta     l      e      Rc     scheme   norm       |                
   |          1      0   -2.914   1.804     qc      0         |                
   |          2      0   -0.176   1.804     qc      0         |                
   |          3      0    0.250   1.804     qc      0         |                
   |          4      1   -1.717   1.804     qc      0         |                
   |          5      1    0.250   1.804     qc      0         |                
   |          6      2    0.000   1.804     qc      0         |                
   |          7      2    0.250   1.804     qc      0         |                
   |         loc     3    0.000   1.804     pn      0         |                
   |                                                          |                
   | Augmentation charge Rinner = 1.261                       |                
   | Partial core correction Rc = 1.261                       |                
   ------------------------------------------------------------                
   | "3|1.8|7|8|9|20U:30:21:32"                               |                
   ------------------------------------------------------------                
   |      Author: Chris J. Pickard, Cambridge University      |                
   ============================================================                
 
 Pseudo atomic calculation performed for O 2s2 2p4
 
 Converged in 28 iterations to a total energy of -424.4682 eV
 
 
 Pseudo atomic calculation performed for Mg 2s2 2p6 3s2
 
 Converged in 19 iterations to a total energy of -1684.3182 eV
 
 Calculation not parallelised.

 ************************************ Title ************************************
 MgO

 ***************************** General Parameters ******************************
  
 output verbosity                               : normal  (1)
 write checkpoint data to                       : MgO.check
 type of calculation                            : geometry optimization
 stress calculation                             : on
 density difference calculation                 : off
 electron localisation func (ELF) calculation   : off
 Hirshfeld analysis                             : off
 unlimited duration calculation
 timing information                             : on
 memory usage estimate                          : on
 write final potential to formatted file        : off
 write final density to formatted file          : off
 write BibTeX reference list                    : on
 write OTFG pseudopotential files               : on
 checkpoint writing                             : both castep_bin and check files
  
 output         length unit                     : A
 output           mass unit                     : amu
 output           time unit                     : ps
 output         charge unit                     : e
 output           spin unit                     : hbar/2
 output         energy unit                     : eV
 output          force unit                     : eV/A
 output       velocity unit                     : A/ps
 output       pressure unit                     : GPa
 output     inv_length unit                     : 1/A
 output      frequency unit                     : cm-1
 output force constant unit                     : eV/A**2
 output         volume unit                     : A**3
 output   IR intensity unit                     : (D/A)**2/amu
 output         dipole unit                     : D
 output         efield unit                     : eV/A/e
 output        entropy unit                     : J/mol/K
  
 wavefunctions paging                           : none
 random number generator seed                   : randomised (133916128)
 data distribution                              : optimal for this architecture
 optimization strategy                          : maximize speed(+++)

 *********************** Exchange-Correlation Parameters ***********************
  
 using functional                               : Local Density Approximation
 relativistic treatment                         : Koelling-Harmon
 DFT+D: Semi-empirical dispersion correction    : off

 ************************* Pseudopotential Parameters **************************
  
 pseudopotential representation                 : reciprocal space
 <beta|phi> representation                      : reciprocal space
 spin-orbit coupling                            : off

 **************************** Basis Set Parameters *****************************
  
 plane wave basis set cut-off                   :   280.0000   eV
 size of standard grid                          :     2.0000
 size of   fine   gmax                          :    17.1454   1/A
 finite basis set correction                    : automatic
 number of sample energies                      :          3
           sample  spacing                      :     5.0000   eV

 **************************** Electronic Parameters ****************************
  
 number of  electrons                           :  140.0    
 net charge of system                           :  0.000    
 treating system as non-spin-polarized
 number of bands                                :         84

 ********************* Electronic Minimization Parameters **********************
  
 Method: Treating system as metallic with density mixing treatment of electrons,
         and number of  SD  steps               :          1
         and number of  CG  steps               :          4
  
 total energy / atom convergence tol.           : 0.1000E-06   eV
 eigen-energy convergence tolerance             : 0.2571E-07   eV
 max force / atom convergence tol.              : ignored
 convergence tolerance window                   :          3   cycles
 max. number of SCF cycles                      :         60
 number of fixed-spin iterations                :         10
 smearing scheme                                : Gaussian
 smearing width                                 : 0.2000       eV
 Fermi energy convergence tolerance             : 0.2721E-13   eV
 periodic dipole correction                     : NONE

 ************************** Density Mixing Parameters **************************
  
 density-mixing scheme                          : Pulay
 max. length of mixing history                  :         30
 charge density mixing amplitude                : 0.8000    
 cut-off energy for mixing                      :  280.0       eV

 *********************** Population Analysis Parameters ************************
  
 Population analysis with cutoff                :  3.000       A

 ********************** Geometry Optimization Parameters ***********************
  
 optimization method                            : BFGS
 variable cell method                           : fixed basis quality
 max. number of steps                           :         30
 estimated bulk modulus                         :  500.0       GPa
 estimated <frequency>                          :  1668.       cm-1
 geom line minimiser                            : on
 with line minimiser tolerance                  :     0.4000
 total energy convergence tolerance             : 0.2000E-04   eV/atom
        max ionic |force| tolerance             : 0.5000E-01   eV/A
 max ionic |displacement| tolerance             : 0.1000E-02   A
   max |stress component| tolerance             : 0.1000       GPa
 convergence tolerance window                   :          2   steps
 backup results every                           :          5   steps

 *******************************************************************************
  
 
                           -------------------------------
                                      Unit Cell
                           -------------------------------
        Real Lattice(A)                      Reciprocal Lattice(1/A)
   4.2000000   0.0000000   0.0000000        1.4959965   0.0000000   0.0000000
   0.0000000   4.2000000   0.0000000        0.0000000   1.4959965   0.0000000
   0.0000000   0.0000000   4.2000000        0.0000000   0.0000000   1.4959965
 
                       Lattice parameters(A)       Cell Angles
                    a =    4.200000          alpha =   90.000000
                    b =    4.200000          beta  =   90.000000
                    c =    4.200000          gamma =   90.000000
 
                       Current cell volume =   74.088000       A**3
 
                           -------------------------------
                                     Cell Contents
                           -------------------------------
                         Total number of ions in cell =   18
                      Total number of species in cell =    2
                        Max number of any one species =   10
 
            xxxxxxxxxxxxxxxxxxxxxxxxxxxxxxxxxxxxxxxxxxxxxxxxxxxxxxxxxxxx
            x  Element    Atom        Fractional coordinates of atoms  x
            x            Number           u          v          w      x
            x----------------------------------------------------------x
            x  O            1         0.500000   0.500000   1.000000   x 
            x  O            2         0.500000   0.000000   0.000000   x 
            x  O            3         0.000000   0.500000   0.000000   x 
            x  O            4         0.000000   0.000000   1.000000   x 
            x  O            5         0.000000   1.000000   0.000000   x 
            x  O            6         0.500000   1.000000   0.000000   x 
            x  O            7         0.000000   1.000000   1.000000   x 
            x  O            8         0.500000   1.000000   1.000000   x 
            x  O            9         1.000000   0.000000   0.000000   x 
            x  O           10         1.000000   0.000000   1.000000   x 
            x  Mg           1         0.000000   0.000000   0.000000   x 
            x  Mg           2         0.000000   0.500000   1.000000   x 
            x  Mg           3         0.500000   0.000000   1.000000   x 
            x  Mg           4         0.500000   0.500000   0.000000   x 
            x  Mg           5         1.000000   0.500000   0.000000   x 
            x  Mg           6         1.000000   0.500000   1.000000   x 
            x  Mg           7         1.000000   1.000000   0.000000   x 
            x  Mg           8         1.000000   1.000000   1.000000   x 
            xxxxxxxxxxxxxxxxxxxxxxxxxxxxxxxxxxxxxxxxxxxxxxxxxxxxxxxxxxxx
 
       **********  Atom Position W A R N I N G: Overlapping atoms! *********
       *                                                                   *
       *   Atoms: O    1 and Mg   4 are VERY close: distance= 0.000 Bohr   *
       *   Atoms: O    2 and O    6 are VERY close: distance= 0.000 Bohr   *
       *   Atoms: O    2 and O    8 are VERY close: distance= 0.000 Bohr   *
       *   Atoms: O    2 and Mg   3 are VERY close: distance= 0.000 Bohr   *
       *   Atoms: O    3 and Mg   2 are VERY close: distance= 0.000 Bohr   *
       *   Atoms: O    3 and Mg   5 are VERY close: distance= 0.000 Bohr   *
       *   Atoms: O    3 and Mg   6 are VERY close: distance= 0.000 Bohr   *
       *   Atoms: O    4 and O    5 are VERY close: distance= 0.000 Bohr   *
       *   Atoms: O    4 and O    7 are VERY close: distance= 0.000 Bohr   *
       *   Atoms: O    4 and O    9 are VERY close: distance= 0.000 Bohr   *
       *   Atoms: O    4 and O   10 are VERY close: distance= 0.000 Bohr   *
       *   Atoms: O    4 and Mg   1 are VERY close: distance= 0.000 Bohr   *
       *   Atoms: O    4 and Mg   7 are VERY close: distance= 0.000 Bohr   *
       *   Atoms: O    4 and Mg   8 are VERY close: distance= 0.000 Bohr   *
       *   Atoms: O    5 and O    7 are VERY close: distance= 0.000 Bohr   *
       *   Atoms: O    5 and O    9 are VERY close: distance= 0.000 Bohr   *
       *   Atoms: O    5 and O   10 are VERY close: distance= 0.000 Bohr   *
       *   Atoms: O    5 and Mg   1 are VERY close: distance= 0.000 Bohr   *
       *   Atoms: O    5 and Mg   7 are VERY close: distance= 0.000 Bohr   *
       *   Atoms: O    5 and Mg   8 are VERY close: distance= 0.000 Bohr   *
       *   Atoms: O    6 and O    8 are VERY close: distance= 0.000 Bohr   *
       *   Atoms: O    6 and Mg   3 are VERY close: distance= 0.000 Bohr   *
       *   Atoms: O    7 and O    9 are VERY close: distance= 0.000 Bohr   *
       *   Atoms: O    7 and O   10 are VERY close: distance= 0.000 Bohr   *
       *   Atoms: O    7 and Mg   1 are VERY close: distance= 0.000 Bohr   *
       *   Atoms: O    7 and Mg   7 are VERY close: distance= 0.000 Bohr   *
       *   Atoms: O    7 and Mg   8 are VERY close: distance= 0.000 Bohr   *
       *   Atoms: O    8 and Mg   3 are VERY close: distance= 0.000 Bohr   *
       *   Atoms: O    9 and O   10 are VERY close: distance= 0.000 Bohr   *
       *   Atoms: O    9 and Mg   1 are VERY close: distance= 0.000 Bohr   *
       *   Atoms: O    9 and Mg   7 are VERY close: distance= 0.000 Bohr   *
       *   Atoms: O    9 and Mg   8 are VERY close: distance= 0.000 Bohr   *
       *   Atoms: O   10 and Mg   1 are VERY close: distance= 0.000 Bohr   *
       *   Atoms: O   10 and Mg   7 are VERY close: distance= 0.000 Bohr   *
       *   Atoms: O   10 and Mg   8 are VERY close: distance= 0.000 Bohr   *
       *   Atoms: Mg   1 and Mg   7 are VERY close: distance= 0.000 Bohr   *
       *   Atoms: Mg   1 and Mg   8 are VERY close: distance= 0.000 Bohr   *
       *   Atoms: Mg   2 and Mg   5 are VERY close: distance= 0.000 Bohr   *
       *   Atoms: Mg   2 and Mg   6 are VERY close: distance= 0.000 Bohr   *
       *   Atoms: Mg   5 and Mg   6 are VERY close: distance= 0.000 Bohr   *
       *   Atoms: Mg   7 and Mg   8 are VERY close: distance= 0.000 Bohr   *
       *                                                                   *
       *********************************************************************
 
                         No user defined ionic velocities
 
                           -------------------------------
                                   Details of Species
                           -------------------------------
 
                               Mass of species in AMU
                                    O   15.9994000
                                    Mg   24.3050000
 
                          Electric Quadrupole Moment (Barn)
                                    O   -0.0255800 Isotope 17
                                    Mg    0.1994000 Isotope 25
 
                          Files used for pseudopotentials:
                                    O 2|1.1|15|18|20|20:21(qc=7)
                                    Mg 3|1.8|7|8|9|20U:30:21:32
 
                           -------------------------------
                              k-Points For BZ Sampling
                           -------------------------------
                       MP grid size for SCF calculation is  3  3  3
                            with an offset of   0.000  0.000  0.000
                       Number of kpoints used =            14
 
                           -------------------------------
                               Symmetry and Constraints
                           -------------------------------
 
                      Cell is a supercell containing 8 primitive cells
                      Maximum deviation from symmetry =  0.00000         ANG
 
         There are no symmetry operations specified or generated for this cell
                      Number of ionic constraints     =           3
                      Point group of crystal =     1: C1, 1, 1
                      Space group of crystal =     0: , 
 
 
                         Centre of mass is constrained
             Set iprint > 1 for details of linear ionic constraints
 
                         Number of cell constraints= 5
                         Cell constraints are:  1 1 1 0 0 0
 
                         External pressure/stress (GPa)
                          0.00000   0.00000   0.00000
                                    0.00000   0.00000
                                              0.00000
  
+---------------- MEMORY AND SCRATCH DISK ESTIMATES PER PROCESS --------------+
|                                                     Memory          Disk    |
| Baseline code, static data and system overhead      146.0 MB         0.0 MB |
| BLAS internal memory storage                          0.0 MB         0.0 MB |
| Model and support data                               81.1 MB         0.0 MB |
| Electronic energy minimisation requirements          41.7 MB         0.0 MB |
| Force calculation requirements                        1.8 MB         0.0 MB |
| Stress calculation requirements                       2.1 MB         0.0 MB |
|                                               ----------------------------- |
| Approx. total storage required per process          268.8 MB         0.0 MB |
|                                                                             |
| Requirements will fluctuate during execution and may exceed these estimates |
+-----------------------------------------------------------------------------+
Calculating finite basis set correction with  3 cut-off energies.
Calculating total energy with cut-off of  270.000eV.
------------------------------------------------------------------------ <-- SCF
SCF loop      Energy           Fermi           Energy gain       Timer   <-- SCF
                               energy          per atom          (sec)   <-- SCF
------------------------------------------------------------------------ <-- SCF
Initial  -7.20031487E+004  0.00000000E+000                        18.58  <-- SCF
      1  -5.46756836E+004  3.56109478E+001  -9.62636945E+002      23.16  <-- SCF
      2  -5.52555206E+004  3.51771693E+001   3.22131623E+001      25.85  <-- SCF
      3  -5.52756085E+004  3.47205860E+001   1.11599605E+000      28.79  <-- SCF
      4  -4.97952791E+004  2.79502379E+001  -3.04462743E+002      32.89  <-- SCF
      5  -4.98403909E+004  2.65347257E+001   2.50620877E+000      36.23  <-- SCF
      6  -4.95912763E+004  3.62457415E+001  -1.38396969E+001      40.28  <-- SCF
      7  -4.96019011E+004  3.59603384E+001   5.90264527E-001      43.95  <-- SCF
      8  -4.94116518E+004  3.37963763E+001  -1.05694047E+001      47.88  <-- SCF
      9  -4.94139261E+004  3.35135268E+001   1.26352124E-001      52.06  <-- SCF
     10  -4.94054835E+004  3.25954240E+001  -4.69032981E-001      55.86  <-- SCF
     11  -4.94042369E+004  3.28809378E+001  -6.92567157E-002      59.82  <-- SCF
     12  -4.94036003E+004  3.27286819E+001  -3.53654635E-002      63.87  <-- SCF
     13  -4.94035507E+004  3.26304699E+001  -2.75557810E-003      67.84  <-- SCF
     14  -4.94035431E+004  3.26632144E+001  -4.23848044E-004      71.31  <-- SCF
     15  -4.94035431E+004  3.26604275E+001  -3.79223407E-006      75.26  <-- SCF
     16  -4.94035430E+004  3.26613726E+001  -3.11016133E-007      78.27  <-- SCF
     17  -4.94035430E+004  3.26616290E+001  -9.05730401E-009      80.39  <-- SCF
     18  -4.94035430E+004  3.26615636E+001   2.00601238E-009      82.45  <-- SCF
------------------------------------------------------------------------ <-- SCF
 
Final energy, E             =  -49403.42160095     eV
Final free energy (E-TS)    =  -49403.54304554     eV
(energies not corrected for finite basis set)
 
NB est. 0K energy (E-0.5TS)      =  -49403.48232325     eV
 
Calculating total energy with cut-off of  275.000eV.
------------------------------------------------------------------------ <-- SCF
SCF loop      Energy           Fermi           Energy gain       Timer   <-- SCF
                               energy          per atom          (sec)   <-- SCF
------------------------------------------------------------------------ <-- SCF
Initial  -4.94034216E+004  0.00000000E+000                        82.94  <-- SCF
