 +-------------------------------------------------+
 |                                                 |
 |      CCC   AA    SSS  TTTTT  EEEEE  PPPP        |
 |     C     A  A  S       T    E      P   P       |
 |     C     AAAA   SS     T    EEE    PPPP        |
 |     C     A  A     S    T    E      P           |
 |      CCC  A  A  SSS     T    EEEEE  P           |
 |                                                 |
 +-------------------------------------------------+
 |                                                 |
 | Welcome to Academic Release CASTEP version 6.1  |
 | Ab Initio Total Energy Program                  |
 |                                                 |
 | Authors:                                        |
 | M. Segall, M. Probert, C. Pickard, P. Hasnip,   |
 | S. Clark, K. Refson, J. R. Yates, M. Payne      |
 |                                                 |
 | Contributors:                                   |
 | P. Lindan, P. Haynes, J. White, V. Milman,      |
 | N. Govind, M. Gibson, P. Tulip, V. Cocula,      |
 | B. Montanari, D. Quigley, M. Glover,            |
 | L. Bernasconi, A. Perlov, M. Plummer,           |
 | E. McNellis, J. Meyer, J. Gale, D. Jochym       |
 | J. Aarons, B. Walker, R. Gillen                 |
 |                                                 |
 | Copyright (c) 2000 - 2012                       |
 |                                                 |
 |     Distributed under the terms of an           |
 |     Agreement between the United Kingdom        |
 |     Car-Parrinello (UKCP) Consortium,           |
 |     Daresbury Laboratory and Accelrys, Inc.     |
 |                                                 |
 | Please cite                                     |
 |                                                 |
 |     "First principles methods using CASTEP"     |
 |                                                 |
 |         Zeitschrift fuer Kristallographie       |
 |           220(5-6) pp. 567-570 (2005)           |
 |                                                 |
 | S. J. Clark, M. D. Segall, C. J. Pickard,       |
 | P. J. Hasnip, M. J. Probert, K. Refson,         |
 | M. C. Payne                                     |
 |                                                 |
 |       in all publications arising from          |
 |              your use of CASTEP                 |
 |                                                 |
 +-------------------------------------------------+


 Compiled for linux_x86_64_gfortran on Wed Nov 21 15:08:09 2012
 from source code version eaed21d6e002+  2012-10-31
 using fast optimisation, fftw3 FFTs and openblas LAPACK and BLAS.


 Atomic calculation performed for O: 1s2 2s2 2p4

 Converged in 60 iterations to an ae energy of -2027.926 eV

   ============================================================                
   | Pseudopotential Report - Date of generation  5-05-2016   |                
   ------------------------------------------------------------                
   | Element: O Ionic charge:  6.00 Level of theory: LDA      |                
   |                                                          |                
   |               Reference Electronic Structure             |                
   |         Orbital         Occupation         Energy        |                
   |            2s              2.000           -0.873        |                
   |            2p              4.000           -0.338        |                
   |                                                          |                
   |                 Pseudopotential Definition               |                
   |        Beta     l      e      Rc     scheme   norm       |                
   |          1      0   -0.873   1.300     qc      0         |                
   |          2      0    0.250   1.300     qc      0         |                
   |          3      1   -0.338   1.300     qc      0         |                
   |          4      1    0.250   1.300     qc      0         |                
   |         loc     2    0.000   1.004     pn      0         |                
   |                                                          |                
   | Augmentation charge Rinner = 0.701                       |                
   | Partial core correction Rc = 0.701                       |                
   ------------------------------------------------------------                
   | "2|1.0|1.3|0.7|13|16|18|20:21(qc=7)"                     |                
   ------------------------------------------------------------                
   |      Author: Chris J. Pickard, Cambridge University      |                
   ============================================================                

 Atomic calculation performed for Mg: 1s2 2s2 2p6 3s2

 Converged in 47 iterations to an ae energy of -5427.407 eV

 Identity difference:   5.17267234911703770E-004

   ============================================================                
   | Pseudopotential Report - Date of generation  5-05-2016   |                
   ------------------------------------------------------------                
   | Element: Mg Ionic charge:  8.00 Level of theory: LDA     |                
   |                                                          |                
   |               Reference Electronic Structure             |                
   |         Orbital         Occupation         Energy        |                
   |            2p              6.000           -1.717        |                
   |            3s              2.000           -0.176        |                
   |                                                          |                
   |                 Pseudopotential Definition               |                
   |        Beta     l      e      Rc     scheme   norm       |                
   |          1      0   -0.176   1.994     qc      1         |                
   |          2      1   -1.717   1.994     qc      0         |                
   |          3      1    0.000   1.994     qc      0         |                
   |          4      1    0.250   1.994     qc      0         |                
   |         loc     2    0.000   1.605     pn      0         |                
   |                                                          |                
   | Augmentation charge Rinner = 1.405                       |                
   | Partial core correction Rc = 1.405                       |                
   ------------------------------------------------------------                
   | "2|1.6|2|1.4|6|7|8|30NH:21U:31UU:32LGG(qc=4.5)[]"        |                
   ------------------------------------------------------------                
   |      Author: Chris J. Pickard, Cambridge University      |                
   ============================================================                

 Doing a self consistent calculation for the test configuration

 Atomic calculation performed for Mg: 1s2 2s2 2p6 3s2

 Converged in 47 iterations to an ae energy of -5427.407 eV

 ---------------------------------------
 AE eigenvalue nl 10 =      -46.06264936
 AE eigenvalue nl 20 =       -2.91364591
 AE eigenvalue nl 21 =       -1.71672732
 AE eigenvalue nl 30 =       -0.17593422
 ---------------------------------------
 PS eigenvalue nl 21 =       -1.71622098
 PS eigenvalue nl 30 =       -0.17592300
 ---------------------------------------

 Atomic calculation performed for Ca: 1s2 2s2 2p6 3s2 3p6 4s2

 Converged in 44 iterations to an ae energy of -18468.058 eV

   ============================================================                
   | Pseudopotential Report - Date of generation  5-05-2016   |                
   ------------------------------------------------------------                
   | Element: Ca Ionic charge: 10.00 Level of theory: LDA     |                
   |                                                          |                
   |               Reference Electronic Structure             |                
   |         Orbital         Occupation         Energy        |                
   |            3s              2.000           -1.721        |                
   |            3p              6.000           -1.028        |                
   |            4s              2.000           -0.142        |                
   |                                                          |                
   |                 Pseudopotential Definition               |                
   |        Beta     l      e      Rc     scheme   norm       |                
   |          1      0   -1.721   2.005     qc      0         |                
   |          2      0   -0.142   2.005     qc      0         |                
   |          3      1   -1.028   2.005     qc      0         |                
   |          4      1    0.250   2.005     qc      0         |                
   |          5      2    0.000   2.005     qc      0         |                
   |          6      2    1.000   2.005     qc      0         |                
   |         loc     3    0.000   1.601     pn      0         |                
   |                                                          |                
   | Augmentation charge Rinner = 1.401                       |                
   | Partial core correction Rc = 1.401                       |                
   ------------------------------------------------------------                
   | "3|1.6|2.0|1.4|7|9|10|30U:40U:31:32U=0U=1.0"             |                
   ------------------------------------------------------------                
   |      Author: Chris J. Pickard, Cambridge University      |                
   ============================================================                

 Pseudo atomic calculation performed for O 2s2 2p4

 Converged in 30 iterations to a total energy of -432.5600 eV


 Pseudo atomic calculation performed for Mg 2p6 3s2

 Converged in 23 iterations to a total energy of -1024.6674 eV


 Pseudo atomic calculation performed for Ca 3s2 3p6 4s2

 Converged in 24 iterations to a total energy of -1000.4575 eV

 Calculation parallelised over 2 processes.
 Data is distributed by k-point(2-way)

 ************************************ Title ************************************
 MgO

 ***************************** General Parameters ******************************
  
 output verbosity                               : normal  (1)
 write checkpoint data to                       : test_7.check
 type of calculation                            : geometry optimization
 stress calculation                             : on
 density difference calculation                 : off
 electron localisation func (ELF) calculation   : off
 Hirshfeld analysis                             : off
 unlimited duration calculation
 timing information                             : on
 memory usage estimate                          : on
 write final potential to formatted file        : off
 write final density to formatted file          : off
 write BibTeX reference list                    : on
  
 output         length unit                     : A
 output           mass unit                     : amu
 output           time unit                     : ps
 output         charge unit                     : e
 output         energy unit                     : eV
 output          force unit                     : eV/A
 output       velocity unit                     : A/ps
 output       pressure unit                     : GPa
 output     inv_length unit                     : 1/A
 output      frequency unit                     : cm-1
 output force constant unit                     : eV/A**2
 output         volume unit                     : A**3
 output   IR intensity unit                     : (D/A)**2/amu
 output         dipole unit                     : D
 output         efield unit                     : eV/A/e
 output        entropy unit                     : J/mol/K
  
 wavefunctions paging                           : none
 random number generator seed                   : randomised (125155424)
 data distribution                              : optimal for this architecture
 optimization strategy                          : maximize speed(+++)

 *********************** Exchange-Correlation Parameters ***********************
  
 using functional                               : Local Density Approximation
 Divergence correction                          : off
 DFT+D: Semi-empirical dispersion correction    : off

 ************************* Pseudopotential Parameters **************************
  
 pseudopotential representation                 : reciprocal space
 <beta|phi> representation                      : reciprocal space

 **************************** Basis Set Parameters *****************************
  
 plane wave basis set cut-off                   :   450.0000   eV
 size of standard grid                          :     2.0000
 size of   fine   gmax                          :    21.7358   1/A
 largest prime factor in FFT                    :          5
 finite basis set correction                    : automatic
 number of sample energies                      :          3
           sample  spacing                      :     5.0000   eV

 **************************** Electronic Parameters ****************************
  
 number of  electrons                           :  200.0    
 net charge of system                           :  0.000    
 net spin   of system                           :  0.000    
 number of  up  spins                           :  100.0    
 number of down spins                           :  100.0    
 treating system as non-spin-polarized
 number of bands                                :        120

 ********************* Electronic Minimization Parameters **********************
  
 Method: Treating system as metallic with density mixing treatment of electrons,
         and number of  SD  steps               :          1
         and number of  CG  steps               :          4
  
 total energy / atom convergence tol.           : 0.1000E-06   eV
 eigen-energy convergence tolerance             : 0.2700E-07   eV
 max force / atom convergence tol.              : ignored
 convergence tolerance window                   :          3   cycles
 max. number of SCF cycles                      :         60
 number of fixed-spin iterations                :         10
 smearing scheme                                : Gaussian
 smearing width                                 : 0.2000       eV
 Fermi energy convergence tolerance             : 0.2700E-08   eV
 periodic dipole correction                     : NONE

 ************************** Density Mixing Parameters **************************
  
 density-mixing scheme                          : Pulay
 max. length of mixing history                  :         30
 charge density mixing amplitude                : 0.8000    
 cut-off energy for mixing                      :  450.0       eV
 charge density mixing g-vector                 :  1.500       1/A

 *********************** Population Analysis Parameters ************************
  
 Population analysis with cutoff                :  3.000       A

 ********************** Geometry Optimization Parameters ***********************
  
 optimization method                            : BFGS
 variable cell method                           : fixed basis quality
 max. number of steps                           :         30
 estimated bulk modulus                         :  500.0       GPa
 estimated <frequency>                          :  1668.       cm-1
 geom line minimiser                            : on
 with line minimiser tolerance                  :     0.4000
 total energy convergence tolerance             : 0.2000E-04   eV/atom
        max ionic |force| tolerance             : 0.5000E-01   eV/A
 max ionic |displacement| tolerance             : 0.1000E-02   A
   max |stress component| tolerance             : 0.1000       GPa
 convergence tolerance window                   :          2   steps
 backup results every                           :          5   steps

 *******************************************************************************
  

                           -------------------------------
                                      Unit Cell
                           -------------------------------
        Real Lattice(A)                      Reciprocal Lattice(1/A)
   8.4000000   0.0000000   0.0000000        0.7479983   0.0000000   0.0000000
   0.0000000   8.4000000   0.0000000        0.0000000   0.7479983   0.0000000
   0.0000000   0.0000000   8.4000000        0.0000000   0.0000000   0.7479983

                       Lattice parameters(A)       Cell Angles
                    a =    8.400000          alpha =   90.000000
                    b =    8.400000          beta  =   90.000000
                    c =    8.400000          gamma =   90.000000

                       Current cell volume =  592.704000       A**3

                           -------------------------------
                                     Cell Contents
                           -------------------------------
                         Total number of ions in cell =   27
                      Total number of species in cell =    3
                        Max number of any one species =   14

            xxxxxxxxxxxxxxxxxxxxxxxxxxxxxxxxxxxxxxxxxxxxxxxxxxxxxxxxxxxx
            x  Element    Atom        Fractional coordinates of atoms  x
            x            Number           u          v          w      x
            x----------------------------------------------------------x
            x  O            1         0.000000   0.000000   0.000000   x
            x  O            2         0.666667   0.000000   0.000000   x
            x  O            3         0.333333   0.333333   0.000000   x
            x  O            4         0.000000   0.666667   0.000000   x
            x  O            5         0.666667   0.666667   0.000000   x
            x  O            6         0.333333   0.000000   0.333333   x
            x  O            7         0.000000   0.333333   0.333333   x
            x  O            8         0.666667   0.333333   0.333333   x
            x  O            9         0.333333   0.666667   0.333333   x
            x  O           10         0.000000   0.000000   0.666667   x
            x  O           11         0.666667   0.000000   0.666667   x
            x  O           12         0.333333   0.333333   0.666667   x
            x  O           13         0.000000   0.666667   0.666667   x
            x  O           14         0.666667   0.666667   0.666667   x
            x  Mg           1         0.333333   0.000000   0.000000   x
            x  Mg           2         0.000000   0.333333   0.000000   x
            x  Mg           3         0.666667   0.333333   0.000000   x
            x  Mg           4         0.333333   0.666667   0.000000   x
            x  Mg           5         0.666667   0.000000   0.333333   x
            x  Mg           6         0.333333   0.333333   0.333333   x
            x  Mg           7         0.000000   0.666667   0.333333   x
            x  Ca           1         0.000000   0.000000   0.333333   x
            x  Ca           2         0.666667   0.666667   0.333333   x
            x  Ca           3         0.333333   0.000000   0.666667   x
            x  Ca           4         0.000000   0.333333   0.666667   x
            x  Ca           5         0.666667   0.333333   0.666667   x
            x  Ca           6         0.333333   0.666667   0.666667   x
            xxxxxxxxxxxxxxxxxxxxxxxxxxxxxxxxxxxxxxxxxxxxxxxxxxxxxxxxxxxx


                         No user defined ionic velocities

                           -------------------------------
                                   Details of Species
                           -------------------------------

                               Mass of species in AMU
                                    O   15.9994000
                                    Mg   24.3050000
                                    Ca   40.0780000

                          Electric Quadrupole Moment (Barn)
                                    O   -0.0255800 Isotope 17
                                    Mg    0.1994000 Isotope 25
                                    Ca   -0.0408000 Isotope 43

                          Files used for pseudopotentials:
                                    O Pseudopotential generated on-the-fly
                                    Mg Pseudopotential generated on-the-fly
                                    Ca Pseudopotential generated on-the-fly

                           -------------------------------
                              k-Points For BZ Sampling
                           -------------------------------
                       MP grid size for SCF calculation is  3  3  3
                         Number of kpoints used =           8

             +++++++++++++++++++++++++++++++++++++++++++++++++++++++
             +  Number       Fractional coordinates        Weight  +
             +-----------------------------------------------------+
             +     1  -0.333333  -0.333333   0.000000   0.0740741  +
             +     2  -0.333333   0.000000  -0.333333   0.2962963  +
             +     3  -0.333333   0.333333   0.000000   0.0740741  +
             +     4   0.000000   0.000000  -0.333333   0.0740741  +
             +     5   0.000000   0.000000   0.000000   0.0370370  +
             +     6   0.000000   0.333333   0.000000   0.1481481  +
             +     7   0.333333  -0.333333  -0.333333   0.1481481  +
             +     8   0.333333   0.333333  -0.333333   0.1481481  +
             +++++++++++++++++++++++++++++++++++++++++++++++++++++++

                           -------------------------------
                               Symmetry and Constraints
                           -------------------------------

                      Number of symmetry operations   =           4
                      Number of ionic constraints     =           3
                      Maximum deviation from symmetry = 0.839999E-09     ANG
               Point group of crystal =     6: C2v, mm2, 2 mm
           Set iprint > 1 for details on symmetry rotations/translations

                          Centre of mass is constrained
             Set iprint > 1 for details of linear ionic constraints

                         Number of cell constraints= 5
                         Cell constraints are:  1 1 1 0 0 0

                         External pressure/stress (GPa)
                          0.00000   0.00000   0.00000
                                    0.00000   0.00000
                                              0.00000
  
+---------------- MEMORY AND SCRATCH DISK ESTIMATES PER NODE -----------------+
|                                                     Memory          Disk    |
| Model and support data                              684.9 MB         0.0 MB |
| Electronic energy minimisation requirements         237.5 MB         0.0 MB |
|                                               ----------------------------- |
| Approx. total storage required per node             922.4 MB         0.0 MB |
|                                                                             |
| Requirements will fluctuate during execution and may exceed these estimates |
+-----------------------------------------------------------------------------+
Calculating finite basis set correction with  3 cut-off energies.
Calculating total energy with cut-off of  440.000eV.
------------------------------------------------------------------------ <-- SCF
SCF loop      Energy           Fermi           Energy gain       Timer   <-- SCF
                               energy          per atom          (sec)   <-- SCF
------------------------------------------------------------------------ <-- SCF
Initial  -1.68412186E+004  0.00000000E+000                        37.70  <-- SCF
      1  -1.86462118E+004  4.23469927E+000   6.68515976E+001     118.64  <-- SCF
      2  -1.93419797E+004 -5.30547026E-001   2.57691819E+001     177.73  <-- SCF
      3  -1.93754731E+004 -1.31840239E+000   1.24049791E+000     238.64  <-- SCF
      4  -1.94460772E+004  3.70122111E+000   2.61496478E+000     316.20  <-- SCF
      5  -1.93500538E+004  1.37074610E+000  -3.55642227E+000     393.13  <-- SCF
      6  -1.93544893E+004  1.38257380E+000   1.64277657E-001     458.10  <-- SCF
      7  -1.93471024E+004  6.75761361E-001  -2.73587139E-001     528.04  <-- SCF
      8  -1.93470637E+004  8.28715461E-001  -1.43521567E-003     598.46  <-- SCF
      9  -1.93436018E+004  7.25597330E-001  -1.28217871E-001     667.87  <-- SCF
     10  -1.93430331E+004  7.81290012E-001  -2.10615787E-002     742.54  <-- SCF
     11  -1.93431447E+004  8.05264153E-001   4.13091426E-003     812.13  <-- SCF
     12  -1.93421136E+004  8.67894478E-001  -3.81876004E-002     885.65  <-- SCF
     13  -1.93421928E+004  8.97170804E-001   2.93238309E-003     961.55  <-- SCF
     14  -1.93419505E+004  9.05908559E-001  -8.97202260E-003    1031.05  <-- SCF
     15  -1.93419587E+004  9.13247253E-001   3.01837121E-004    1104.46  <-- SCF
     16  -1.93419412E+004  9.17516406E-001  -6.48478140E-004    1172.86  <-- SCF
     17  -1.93419380E+004  9.11758261E-001  -1.17163790E-004    1245.95  <-- SCF
     18  -1.93419374E+004  9.14167498E-001  -2.03886203E-005    1317.48  <-- SCF
     19  -1.93419373E+004  9.13282118E-001  -4.14338664E-006    1382.34  <-- SCF
     20  -1.93419373E+004  9.13900155E-001  -1.56776636E-006    1441.02  <-- SCF
     21  -1.93419373E+004  9.14118256E-001   7.43097643E-008    1489.29  <-- SCF
     22  -1.93419373E+004  9.14201080E-001  -8.21527822E-009    1535.57  <-- SCF
------------------------------------------------------------------------ <-- SCF
 
Final energy, E             =  -19341.23139174     eV
Final free energy (E-TS)    =  -19341.93729203     eV
(energies not corrected for finite basis set)
 
NB est. 0K energy (E-0.5TS)      =  -19341.58434188     eV
 
Calculating total energy with cut-off of  445.000eV.
------------------------------------------------------------------------ <-- SCF
SCF loop      Energy           Fermi           Energy gain       Timer   <-- SCF
                               energy          per atom          (sec)   <-- SCF
------------------------------------------------------------------------ <-- SCF
Initial  -1.93412314E+004  0.00000000E+000                      1553.33  <-- SCF
      1  -1.93423208E+004  9.09071270E-001   4.03487461E-002    1610.70  <-- SCF
      2  -1.93423209E+004  9.09072687E-001   4.72745304E-006    1671.60  <-- SCF
      3  -1.93423227E+004  9.30219395E-001   6.38257559E-005    1733.36  <-- SCF
      4  -1.93423310E+004  8.99720978E-001   3.09093951E-004    1796.96  <-- SCF
      5  -1.93423257E+004  8.99537551E-001  -1.98060609E-004    1861.38  <-- SCF
      6  -1.93423254E+004  9.07982475E-001  -7.68807782E-006    1924.82  <-- SCF
      7  -1.93423217E+004  9.12283244E-001  -1.37725004E-004    1985.98  <-- SCF
      8  -1.93423209E+004  9.17239873E-001  -3.18553277E-005    2051.84  <-- SCF
      9  -1.93423221E+004  9.15583016E-001   4.38778774E-005    2114.01  <-- SCF
     10  -1.93423207E+004  9.14198932E-001  -4.91494942E-005    2172.05  <-- SCF
     11  -1.93423208E+004  9.14426736E-001   9.12723929E-007    2235.00  <-- SCF
     12  -1.93423208E+004  9.14430366E-001  -4.05632012E-008    2292.01  <-- SCF
     13  -1.93423207E+004  9.14427009E-001  -9.37338484E-007    2345.96  <-- SCF
     14  -1.93423207E+004  9.14501929E-001  -3.82742984E-008    2391.18  <-- SCF
     15  -1.93423207E+004  9.14509287E-001   1.80114885E-010    2435.86  <-- SCF
------------------------------------------------------------------------ <-- SCF
 
Final energy, E             =  -19341.61496231     eV
Final free energy (E-TS)    =  -19342.32072477     eV
(energies not corrected for finite basis set)
 
NB est. 0K energy (E-0.5TS)      =  -19341.96784354     eV
 
Calculating total energy with cut-off of  450.000eV.
------------------------------------------------------------------------ <-- SCF
SCF loop      Energy           Fermi           Energy gain       Timer   <-- SCF
                               energy          per atom          (sec)   <-- SCF
------------------------------------------------------------------------ <-- SCF
Initial  -1.93416150E+004  0.00000000E+000                      2453.56  <-- SCF
      1  -1.93426649E+004  9.09781195E-001   3.88864408E-002    2511.86  <-- SCF
      2  -1.93426650E+004  9.09782809E-001   4.44966181E-006    2575.07  <-- SCF
      3  -1.93426665E+004  9.28688964E-001   5.59532597E-005    2637.90  <-- SCF
      4  -1.93426798E+004  9.06081060E-001   4.92959222E-004    2704.12  <-- SCF
      5  -1.93426691E+004  8.93255093E-001  -3.98739284E-004    2769.38  <-- SCF
      6  -1.93426730E+004  9.12861317E-001   1.44790330E-004    2833.38  <-- SCF
      7  -1.93426647E+004  9.14755382E-001  -3.06064227E-004    2895.80  <-- SCF
      8  -1.93426654E+004  9.17926811E-001   2.65613045E-005    2959.56  <-- SCF
      9  -1.93426662E+004  9.14531120E-001   2.65817110E-005    3020.42  <-- SCF
     10  -1.93426648E+004  9.14969525E-001  -5.07118938E-005    3079.74  <-- SCF
     11  -1.93426649E+004  9.14797681E-001   4.28088671E-006    3144.28  <-- SCF
     12  -1.93426648E+004  9.14762120E-001  -2.25684925E-006    3201.63  <-- SCF
     13  -1.93426648E+004  9.14680369E-001   7.08322408E-008    3257.71  <-- SCF
     14  -1.93426648E+004  9.14786045E-001  -2.59771036E-007    3308.63  <-- SCF
     15  -1.93426648E+004  9.14820220E-001   3.60928689E-009    3353.23  <-- SCF
     16  -1.93426648E+004  9.14831507E-001   1.34639314E-009    3397.80  <-- SCF
------------------------------------------------------------------------ <-- SCF
 
Final energy, E             =  -19341.95877070     eV
Final free energy (E-TS)    =  -19342.66483167     eV
(energies not corrected for finite basis set)
 
NB est. 0K energy (E-0.5TS)      =  -19342.31180118     eV
 
 For future reference: finite basis dEtot/dlog(Ecut) =     -31.564906eV
 Total energy corrected for finite basis set =  -19342.659625 eV
 
+---------------- MEMORY AND SCRATCH DISK ESTIMATES PER NODE -----------------+
|                                                     Memory          Disk    |
| Model and support data                              684.9 MB         0.0 MB |
| Electronic energy minimisation requirements         237.5 MB         0.0 MB |
| Geometry minimisation requirements                  336.4 MB         0.0 MB |
|                                               ----------------------------- |
| Approx. total storage required per node            1258.8 MB         0.0 MB |
|                                                                             |
| Requirements will fluctuate during execution and may exceed these estimates |
+-----------------------------------------------------------------------------+
 

 *********************************** Forces ***********************************
 *                                                                            *
 *                        Cartesian components (eV/A)                         *
 * -------------------------------------------------------------------------- *
 *                   x                    y                    z              *
 *                                                                            *
 * O         1      1.29322              1.29322              0.98855         *
 * O         2     -1.13782              1.13782              1.16320         *
 * O         3      0.00000              0.00000              0.94781         *
 * O         4      1.13782             -1.13782              1.16320         *
 * O         5     -1.29322             -1.29322              0.98855         *
 * O         6     -0.10505              1.06661              0.37771         *
 * O         7      1.06661             -0.10505              0.37771         *
 * O         8     -1.06661              0.10505              0.37771         *
 * O         9      0.10505             -1.06661              0.37771         *
 * O        10      1.46423              1.46423             -1.33688         *
 * O        11     -1.26331              1.26331             -1.43526         *
 * O        12      0.00000              0.00000             -1.19475         *
 * O        13      1.26331             -1.26331             -1.43526         *
 * O        14     -1.46423             -1.46423             -1.33688         *
 * Mg        1      0.02437              1.66973              2.77065         *
 * Mg        2      1.66973              0.02437              2.77065         *
 * Mg        3     -1.66973             -0.02437              2.77065         *
 * Mg        4     -0.02437             -1.66973              2.77065         *
 * Mg        5     -2.71217              2.71217             -0.05469         *
 * Mg        6      0.00000              0.00000             -0.17128         *
 * Mg        7      2.71217             -2.71217             -0.05469         *
 * Ca        1      2.78672              2.78672             -0.10185         *
 * Ca        2     -2.78672             -2.78672             -0.10185         *
 * Ca        3      0.02964              3.26355             -2.65534         *
 * Ca        4      3.26355              0.02964             -2.65534         *
 * Ca        5     -3.26355             -0.02964             -2.65534         *
 * Ca        6     -0.02964             -3.26355             -2.65534         *
 *                                                                            *
 ******************************************************************************

 ***************** Stress Tensor *****************
 *                                               *
 *          Cartesian components (GPa)           *
 * --------------------------------------------- *
 *             x             y             z     *
 *                                               *
 *  x     15.269021     -0.536165      0.000000  *
 *  y     -0.536165     15.269021      0.000000  *
 *  z      0.000000      0.000000     15.028862  *
 *                                               *
 *  Pressure:  -15.1890                          *
 *                                               *
 *************************************************

 *********** Constrained Stress Tensor ***********
 *                                               *
 *          Cartesian components (GPa)           *
 * --------------------------------------------- *
 *             x             y             z     *
 *                                               *
 *  x     15.501288     -0.000000      0.000000  *
 *  y     -0.000000     15.501288      0.000000  *
 *  z      0.000000      0.000000     15.501288  *
 *                                               *
 *  Pressure:  -15.5013                          *
 *                                               *
 *************************************************
 BFGS: finished iteration     0 with enthalpy= -1.93426596E+004 eV
  
 +-----------+-----------------+-----------------+------------+-----+ <-- BFGS
 | Parameter |      value      |    tolerance    |    units   | OK? | <-- BFGS
 +-----------+-----------------+-----------------+------------+-----+ <-- BFGS
 |  dE/ion   |   0.000000E+000 |   2.000000E-005 |         eV | No  | <-- BFGS
 |  |F|max   |   4.207427E+000 |   5.000000E-002 |       eV/A | No  | <-- BFGS
 |  |dR|max  |   0.000000E+000 |   1.000000E-003 |          A | No  | <-- BFGS
 |   Smax    |   1.518895E+001 |   1.000000E-001 |        GPa | No  | <-- BFGS
 +-----------+-----------------+-----------------+------------+-----+ <-- BFGS
  

================================================================================
 Starting BFGS iteration          1 ...
================================================================================
  
 +------------+-------------+-------------+-----------------+ <-- min BFGS
 |    Step    |   lambda    |   F.delta   |    enthalpy     | <-- min BFGS
 +------------+-------------+-------------+-----------------+ <-- min BFGS
 |  previous  |    0.000000 |    0.096339 |   -19342.659625 | <-- min BFGS
 +------------+-------------+-------------+-----------------+ <-- min BFGS
  

--------------------------------------------------------------------------------
 BFGS: starting iteration         1 with trial guess (lambda=  1.000000)
--------------------------------------------------------------------------------

                           -------------------------------
                                      Unit Cell
                           -------------------------------
        Real Lattice(A)              Reciprocal Lattice(1/A)
   8.3149419   0.0000000   0.0000000        0.7556499  -0.0000000   0.0000000
   0.0000000   8.3149419   0.0000000       -0.0000000   0.7556499   0.0000000
   0.0000000   0.0000000   8.3149419        0.0000000   0.0000000   0.7556499

                       Lattice parameters(A)       Cell Angles
                    a =    8.314942          alpha =   90.000000
                    b =    8.314942          beta  =   90.000000
                    c =    8.314942          gamma =   90.000000

                Current cell volume =  574.880605 A**3

                           -------------------------------
                                     Cell Contents
                           -------------------------------

            xxxxxxxxxxxxxxxxxxxxxxxxxxxxxxxxxxxxxxxxxxxxxxxxxxxxxxxxxxxx
            x  Element    Atom        Fractional coordinates of atoms  x
            x            Number           u          v          w      x
            x----------------------------------------------------------x
            x  O            1         0.000640   0.000640   0.000489   x
            x  O            2         0.666103   0.000563   0.000576   x
            x  O            3         0.333333   0.333333   0.000469   x
            x  O            4         0.000563   0.666103   0.000576   x
            x  O            5         0.666026   0.666026   0.000489   x
            x  O            6         0.333281   0.000528   0.333520   x
            x  O            7         0.000528   0.333281   0.333520   x
            x  O            8         0.666139   0.333385   0.333520   x
            x  O            9         0.333385   0.666139   0.333520   x
            x  O           10         0.000725   0.000725   0.666005   x
            x  O           11         0.666041   0.000626   0.665956   x
            x  O           12         0.333333   0.333333   0.666075   x
            x  O           13         0.000626   0.666041   0.665956   x
            x  O           14         0.665942   0.665942   0.666005   x
            x  Mg           1         0.333345   0.000827   0.001372   x
            x  Mg           2         0.000827   0.333345   0.001372   x
            x  Mg           3         0.665840   0.333321   0.001372   x
            x  Mg           4         0.333321   0.665840   0.001372   x
            x  Mg           5         0.665324   0.001343   0.333306   x
            x  Mg           6         0.333333   0.333333   0.333249   x
            x  Mg           7         0.001343   0.665324   0.333306   x
            x  Ca           1         0.001380   0.001380   0.333283   x
            x  Ca           2         0.665287   0.665287   0.333283   x
            x  Ca           3         0.333348   0.001616   0.665352   x
            x  Ca           4         0.001616   0.333348   0.665352   x
            x  Ca           5         0.665051   0.333319   0.665352   x
            x  Ca           6         0.333319   0.665051   0.665352   x
            xxxxxxxxxxxxxxxxxxxxxxxxxxxxxxxxxxxxxxxxxxxxxxxxxxxxxxxxxxxx


------------------------------------------------------------------------ <-- SCF
SCF loop      Energy           Fermi           Energy gain       Timer   <-- SCF
                               energy          per atom          (sec)   <-- SCF
------------------------------------------------------------------------ <-- SCF
Initial  -1.93385189E+004  0.00000000E+000                      3600.01  <-- SCF
      1  -1.93524668E+004  1.97672641E+000   5.16590422E-001    3657.84  <-- SCF
      2  -1.93527299E+004  1.97313497E+000   9.74238708E-003    3743.72  <-- SCF
      3  -1.93672539E+004  6.30048234E-001   5.37928427E-001    3811.86  <-- SCF
      4  -1.93486953E+004  1.44750541E+000  -6.87358746E-001    3886.49  <-- SCF
      5  -1.93479841E+004  1.41380989E+000  -2.63391692E-002    3956.97  <-- SCF
      6  -1.93461943E+004  1.36575747E+000  -6.62874136E-002    4030.93  <-- SCF
      7  -1.93459140E+004  1.23226022E+000  -1.03820033E-002    4099.73  <-- SCF
      8  -1.93454072E+004  1.11094958E+000  -1.87698739E-002    4170.94  <-- SCF
      9  -1.93454721E+004  1.11429379E+000   2.40046123E-003    4240.82  <-- SCF
     10  -1.93453994E+004  1.11845886E+000  -2.69158907E-003    4311.53  <-- SCF
     11  -1.93453610E+004  1.09615367E+000  -1.42011448E-003    4377.20  <-- SCF
     12  -1.93453526E+004  1.08913601E+000  -3.11763303E-004    4444.88  <-- SCF
     13  -1.93453377E+004  1.08485818E+000  -5.54148828E-004    4514.06  <-- SCF
     14  -1.93453383E+004  1.08657125E+000   2.35965309E-005    4582.94  <-- SCF
     15  -1.93453375E+004  1.08727149E+000  -2.88818266E-005    4646.51  <-- SCF
     16  -1.93453376E+004  1.08690438E+000   2.49881893E-006    4707.95  <-- SCF
     17  -1.93453376E+004  1.08668189E+000  -1.10865180E-007    4754.13  <-- SCF
     18  -1.93453376E+004  1.08675780E+000  -2.26381037E-008    4799.18  <-- SCF
     19  -1.93453376E+004  1.08674499E+000   8.92691534E-009    4844.17  <-- SCF
------------------------------------------------------------------------ <-- SCF
 
Final energy, E             =  -19344.67265748     eV
Final free energy (E-TS)    =  -19345.33757842     eV
(energies not corrected for finite basis set)
 
NB est. 0K energy (E-0.5TS)      =  -19345.00511795     eV
 

 *********************************** Forces ***********************************
 *                                                                            *
 *                        Cartesian components (eV/A)                         *
 * -------------------------------------------------------------------------- *
 *                   x                    y                    z              *
 *                                                                            *
 * O         1      1.35077              1.35077              1.00547         *
 * O         2     -1.18705              1.18705              1.21985         *
 * O         3      0.00000              0.00000              1.00058         *
 * O         4      1.18705             -1.18705              1.21985         *
 * O         5     -1.35077             -1.35077              1.00547         *
 * O         6     -0.09573              1.13234              0.36717         *
 * O         7      1.13234             -0.09573              0.36717         *
 * O         8     -1.13234              0.09573              0.36717         *
 * O         9      0.09573             -1.13234              0.36717         *
 * O        10      1.49731              1.49731             -1.37516         *
 * O        11     -1.28517              1.28517             -1.50930         *
 * O        12      0.00000              0.00000             -1.25920         *
 * O        13      1.28517             -1.28517             -1.50930         *
 * O        14     -1.49731             -1.49731             -1.37516         *
 * Mg        1      0.02575              1.76676              2.82108         *
 * Mg        2      1.76676              0.02575              2.82108         *
 * Mg        3     -1.76676             -0.02575              2.82108         *
 * Mg        4     -0.02575             -1.76676              2.82108         *
 * Mg        5     -2.76808              2.76808             -0.05702         *
 * Mg        6      0.00000              0.00000             -0.18928         *
 * Mg        7      2.76808             -2.76808             -0.05702         *
 * Ca        1      2.80400              2.80400             -0.10539         *
 * Ca        2     -2.80400             -2.80400             -0.10539         *
 * Ca        3      0.03038              3.22647             -2.66550         *
 * Ca        4      3.22647              0.03038             -2.66550         *
 * Ca        5     -3.22647             -0.03038             -2.66550         *
 * Ca        6     -0.03038             -3.22647             -2.66550         *
 *                                                                            *
 ******************************************************************************

 ***************** Stress Tensor *****************
 *                                               *
 *          Cartesian components (GPa)           *
 * --------------------------------------------- *
 *             x             y             z     *
 *                                               *
 *  x     15.627076     -0.561068      0.000000  *
 *  y     -0.561068     15.627076      0.000000  *
 *  z      0.000000      0.000000     15.408762  *
 *                                               *
 *  Pressure:  -15.5543                          *
 *                                               *
 *************************************************

 *********** Constrained Stress Tensor ***********
 *                                               *
 *          Cartesian components (GPa)           *
 * --------------------------------------------- *
 *             x             y             z     *
 *                                               *
 *  x     15.878574     -0.000000      0.000000  *
 *  y     -0.000000     15.878574      0.000000  *
 *  z      0.000000      0.000000     15.878574  *
 *                                               *
 *  Pressure:  -15.8786                          *
 *                                               *
 *************************************************
  
 +------------+-------------+-------------+-----------------+ <-- min BFGS
 |    Step    |   lambda    |   F.delta   |    enthalpy     | <-- min BFGS
 +------------+-------------+-------------+-----------------+ <-- min BFGS
 |  previous  |    0.000000 |    0.096339 |   -19342.659625 | <-- min BFGS
 | trial step |    1.000000 |    0.096716 |   -19345.339319 | <-- min BFGS
 +------------+-------------+-------------+-----------------+ <-- min BFGS
  
 BFGS: finished iteration     1 with enthalpy= -1.93453393E+004 eV
  
 +-----------+-----------------+-----------------+------------+-----+ <-- BFGS
 | Parameter |      value      |    tolerance    |    units   | OK? | <-- BFGS
 +-----------+-----------------+-----------------+------------+-----+ <-- BFGS
 |  dE/ion   |   9.924793E-002 |   2.000000E-005 |         eV | No  | <-- BFGS
 |  |F|max   |   4.185203E+000 |   5.000000E-002 |       eV/A | No  | <-- BFGS
 |  |dR|max  |   1.732309E-002 |   1.000000E-003 |          A | No  | <-- BFGS
 |   Smax    |   1.555428E+001 |   1.000000E-001 |        GPa | No  | <-- BFGS
 +-----------+-----------------+-----------------+------------+-----+ <-- BFGS
  

================================================================================
 Starting BFGS iteration          2 ...
================================================================================
  
 +------------+-------------+-------------+-----------------+ <-- min BFGS
 |    Step    |   lambda    |   F.delta   |    enthalpy     | <-- min BFGS
 +------------+-------------+-------------+-----------------+ <-- min BFGS
 |  previous  |    0.000000 |    0.097110 |   -19345.339319 | <-- min BFGS
 +------------+-------------+-------------+-----------------+ <-- min BFGS
  

--------------------------------------------------------------------------------
 BFGS: starting iteration         2 with trial guess (lambda=  1.000000)
--------------------------------------------------------------------------------

                           -------------------------------
                                      Unit Cell
                           -------------------------------
        Real Lattice(A)              Reciprocal Lattice(1/A)
   8.2295931   0.0000000   0.0000000        0.7634868  -0.0000000   0.0000000
   0.0000000   8.2295931   0.0000000       -0.0000000   0.7634868   0.0000000
   0.0000000   0.0000000   8.2295931        0.0000000   0.0000000   0.7634868

                       Lattice parameters(A)       Cell Angles
                    a =    8.229593          alpha =   90.000000
                    b =    8.229593          beta  =   90.000000
                    c =    8.229593          gamma =   90.000000

                Current cell volume =  557.359079 A**3

                           -------------------------------
                                     Cell Contents
                           -------------------------------

            xxxxxxxxxxxxxxxxxxxxxxxxxxxxxxxxxxxxxxxxxxxxxxxxxxxxxxxxxxxx
            x  Element    Atom        Fractional coordinates of atoms  x
            x            Number           u          v          w      x
            x----------------------------------------------------------x
            x  O            1         0.001302   0.001302   0.000982   x
            x  O            2         0.665521   0.001145   0.001174   x
            x  O            3         0.333333   0.333333   0.000960   x
            x  O            4         0.001145   0.665521   0.001174   x
            x  O            5         0.665364   0.665364   0.000982   x
            x  O            6         0.333234   0.001083   0.333700   x
            x  O            7         0.001083   0.333234   0.333700   x
            x  O            8         0.665584   0.333432   0.333700   x
            x  O            9         0.333432   0.665584   0.333700   x
            x  O           10         0.001459   0.001459   0.665331   x
            x  O           11         0.665411   0.001255   0.665216   x
            x  O           12         0.333333   0.333333   0.665458   x
            x  O           13         0.001255   0.665411   0.665216   x
            x  O           14         0.665208   0.665208   0.665331   x
            x  Mg           1         0.333358   0.001693   0.002755   x
            x  Mg           2         0.001693   0.333358   0.002755   x
            x  Mg           3         0.664974   0.333309   0.002755   x
            x  Mg           4         0.333309   0.664974   0.002755   x
            x  Mg           5         0.663967   0.002700   0.333278   x
            x  Mg           6         0.333333   0.333333   0.333156   x
            x  Mg           7         0.002700   0.663967   0.333278   x
            x  Ca           1         0.002754   0.002754   0.333231   x
            x  Ca           2         0.663912   0.663912   0.333231   x
            x  Ca           3         0.333363   0.003197   0.664045   x
            x  Ca           4         0.003197   0.333363   0.664045   x
            x  Ca           5         0.663469   0.333304   0.664045   x
            x  Ca           6         0.333304   0.663469   0.664045   x
            xxxxxxxxxxxxxxxxxxxxxxxxxxxxxxxxxxxxxxxxxxxxxxxxxxxxxxxxxxxx


------------------------------------------------------------------------ <-- SCF
SCF loop      Energy           Fermi           Energy gain       Timer   <-- SCF
                               energy          per atom          (sec)   <-- SCF
------------------------------------------------------------------------ <-- SCF
Initial  -1.93412439E+004  0.00000000E+000                      5044.96  <-- SCF
      1  -1.93550399E+004  2.16197392E+000   5.10964065E-001    5103.88  <-- SCF
      2  -1.93552982E+004  2.15846026E+000   9.56641405E-003    5188.20  <-- SCF
      3  -1.93682672E+004  7.90243566E-001   4.80332607E-001    5254.27  <-- SCF
      4  -1.93510285E+004  1.66121879E+000  -6.38469504E-001    5323.93  <-- SCF
      5  -1.93499492E+004  1.54729669E+000  -3.99742084E-002    5392.91  <-- SCF
      6  -1.93488460E+004  1.54083211E+000  -4.08584145E-002    5466.50  <-- SCF
      7  -1.93484489E+004  1.37708748E+000  -1.47069090E-002    5533.51  <-- SCF
      8  -1.93480941E+004  1.30155655E+000  -1.31406560E-002    5602.10  <-- SCF
      9  -1.93481462E+004  1.29225551E+000   1.92790654E-003    5673.04  <-- SCF
     10  -1.93480746E+004  1.29672641E+000  -2.65145191E-003    5741.46  <-- SCF
     11  -1.93480473E+004  1.27892241E+000  -1.01197621E-003    5805.66  <-- SCF
     12  -1.93480398E+004  1.27138272E+000  -2.76661212E-004    5870.97  <-- SCF
     13  -1.93480280E+004  1.26590734E+000  -4.37993827E-004    5936.79  <-- SCF
     14  -1.93480278E+004  1.26681867E+000  -6.31864889E-006    6001.58  <-- SCF
     15  -1.93480278E+004  1.26727111E+000  -6.57714251E-007    6063.27  <-- SCF
     16  -1.93480277E+004  1.26712030E+000  -4.29217609E-006    6119.77  <-- SCF
     17  -1.93480277E+004  1.26687906E+000   2.14947866E-007    6167.57  <-- SCF
     18  -1.93480277E+004  1.26692792E+000  -1.11762890E-008    6212.10  <-- SCF
     19  -1.93480277E+004  1.26696618E+000   2.67422482E-010    6257.97  <-- SCF
------------------------------------------------------------------------ <-- SCF
 
Final energy, E             =  -19347.40252234     eV
Final free energy (E-TS)    =  -19348.02769148     eV
(energies not corrected for finite basis set)
 
NB est. 0K energy (E-0.5TS)      =  -19347.71510691     eV
 

 *********************************** Forces ***********************************
 *                                                                            *
 *                        Cartesian components (eV/A)                         *
 * -------------------------------------------------------------------------- *
 *                   x                    y                    z              *
 *                                                                            *
 * O         1      1.40847              1.40847              1.02052         *
 * O         2     -1.23623              1.23623              1.27732         *
 * O         3      0.00000              0.00000              1.04561         *
 * O         4      1.23623             -1.23623              1.27732         *
 * O         5     -1.40847             -1.40847              1.02052         *
 * O         6     -0.08511              1.19146              0.35335         *
 * O         7      1.19146             -0.08511              0.35335         *
 * O         8     -1.19146              0.08511              0.35335         *
 * O         9      0.08511             -1.19146              0.35335         *
 * O        10      1.52839              1.52839             -1.41298         *
 * O        11     -1.30373              1.30373             -1.58406         *
 * O        12      0.00000              0.00000             -1.31782         *
 * O        13      1.30373             -1.30373             -1.58406         *
 * O        14     -1.52839             -1.52839             -1.41298         *
 * Mg        1      0.02738              1.86664              2.87193         *
 * Mg        2      1.86664              0.02738              2.87193         *
 * Mg        3     -1.86664             -0.02738              2.87193         *
 * Mg        4     -0.02738             -1.86664              2.87193         *
 * Mg        5     -2.82598              2.82598             -0.06021         *
 * Mg        6      0.00000              0.00000             -0.20842         *
 * Mg        7      2.82598             -2.82598             -0.06021         *
 * Ca        1      2.81637              2.81637             -0.11012         *
 * Ca        2     -2.81637             -2.81637             -0.11012         *
 * Ca        3      0.03235              3.18549             -2.67035         *
 * Ca        4      3.18549              0.03235             -2.67035         *
 * Ca        5     -3.18549             -0.03235             -2.67035         *
 * Ca        6     -0.03235             -3.18549             -2.67035         *
 *                                                                            *
 ******************************************************************************

 ***************** Stress Tensor *****************
 *                                               *
 *          Cartesian components (GPa)           *
 * --------------------------------------------- *
 *             x             y             z     *
 *                                               *
 *  x     15.941926     -0.585015      0.000000  *
 *  y     -0.585015     15.941926      0.000000  *
 *  z      0.000000      0.000000     15.752469  *
 *                                               *
 *  Pressure:  -15.8788                          *
 *                                               *
 *************************************************

 *********** Constrained Stress Tensor ***********
 *                                               *
 *          Cartesian components (GPa)           *
 * --------------------------------------------- *
 *             x             y             z     *
 *                                               *
 *  x     16.213291      0.000000      0.000000  *
 *  y      0.000000     16.213291      0.000000  *
 *  z      0.000000      0.000000     16.213291  *
 *                                               *
 *  Pressure:  -16.2133                          *
 *                                               *
 *************************************************
  
 +------------+-------------+-------------+-----------------+ <-- min BFGS
 |    Step    |   lambda    |   F.delta   |    enthalpy     | <-- min BFGS
 +------------+-------------+-------------+-----------------+ <-- min BFGS
 |  previous  |    0.000000 |    0.097110 |   -19345.339319 | <-- min BFGS
 | trial step |    1.000000 |    0.097247 |   -19348.038653 | <-- min BFGS
 +------------+-------------+-------------+-----------------+ <-- min BFGS
  
 BFGS: finished iteration     2 with enthalpy= -1.93480387E+004 eV
  
 +-----------+-----------------+-----------------+------------+-----+ <-- BFGS
 | Parameter |      value      |    tolerance    |    units   | OK? | <-- BFGS
 +-----------+-----------------+-----------------+------------+-----+ <-- BFGS
 |  dE/ion   |   9.997534E-002 |   2.000000E-005 |         eV | No  | <-- BFGS
 |  |F|max   |   4.156820E+000 |   5.000000E-002 |       eV/A | No  | <-- BFGS
 |  |dR|max  |   1.688203E-002 |   1.000000E-003 |          A | No  | <-- BFGS
 |   Smax    |   1.587874E+001 |   1.000000E-001 |        GPa | No  | <-- BFGS
 +-----------+-----------------+-----------------+------------+-----+ <-- BFGS
  

================================================================================
 Starting BFGS iteration          3 ...
================================================================================
  
 +------------+-------------+-------------+-----------------+ <-- min BFGS
 |    Step    |   lambda    |   F.delta   |    enthalpy     | <-- min BFGS
 +------------+-------------+-------------+-----------------+ <-- min BFGS
 |  previous  |    0.000000 |    0.097400 |   -19348.038653 | <-- min BFGS
 +------------+-------------+-------------+-----------------+ <-- min BFGS
  

--------------------------------------------------------------------------------
 BFGS: starting iteration         3 with trial guess (lambda=  1.000000)
--------------------------------------------------------------------------------

                           -------------------------------
                                      Unit Cell
                           -------------------------------
        Real Lattice(A)              Reciprocal Lattice(1/A)
   8.1442433   0.0000000   0.0000000        0.7714879  -0.0000000   0.0000000
   0.0000000   8.1442433   0.0000000       -0.0000000   0.7714879   0.0000000
   0.0000000   0.0000000   8.1442433        0.0000000   0.0000000   0.7714879

                       Lattice parameters(A)       Cell Angles
                    a =    8.144243          alpha =   90.000000
                    b =    8.144243          beta  =   90.000000
                    c =    8.144243          gamma =   90.000000

                Current cell volume =  540.197067 A**3

                           -------------------------------
                                     Cell Contents
                           -------------------------------

            xxxxxxxxxxxxxxxxxxxxxxxxxxxxxxxxxxxxxxxxxxxxxxxxxxxxxxxxxxxx
            x  Element    Atom        Fractional coordinates of atoms  x
            x            Number           u          v          w      x
            x----------------------------------------------------------x
            x  O            1         0.001986   0.001986   0.001477   x
            x  O            2         0.664922   0.001745   0.001794   x
            x  O            3         0.333333   0.333333   0.001467   x
            x  O            4         0.001745   0.664922   0.001794   x
            x  O            5         0.664681   0.664681   0.001477   x
            x  O            6         0.333193   0.001661   0.333872   x
            x  O            7         0.001661   0.333193   0.333872   x
            x  O            8         0.665006   0.333474   0.333872   x
            x  O            9         0.333474   0.665006   0.333872   x
            x  O           10         0.002200   0.002200   0.664645   x
            x  O           11         0.664779   0.001888   0.664448   x
            x  O           12         0.333333   0.333333   0.664819   x
            x  O           13         0.001888   0.664779   0.664448   x
            x  O           14         0.664466   0.664466   0.664645   x
            x  Mg           1         0.333371   0.002598   0.004148   x
            x  Mg           2         0.002598   0.333371   0.004148   x
            x  Mg           3         0.664068   0.333295   0.004148   x
            x  Mg           4         0.333295   0.664068   0.004148   x
            x  Mg           5         0.662596   0.004071   0.333249   x
            x  Mg           6         0.333333   0.333333   0.333055   x
            x  Mg           7         0.004071   0.662596   0.333249   x
            x  Ca           1         0.004121   0.004121   0.333178   x
            x  Ca           2         0.662546   0.662546   0.333178   x
            x  Ca           3         0.333379   0.004743   0.662750   x
            x  Ca           4         0.004743   0.333379   0.662750   x
            x  Ca           5         0.661924   0.333288   0.662750   x
            x  Ca           6         0.333288   0.661924   0.662750   x
            xxxxxxxxxxxxxxxxxxxxxxxxxxxxxxxxxxxxxxxxxxxxxxxxxxxxxxxxxxxx


------------------------------------------------------------------------ <-- SCF
SCF loop      Energy           Fermi           Energy gain       Timer   <-- SCF
                               energy          per atom          (sec)   <-- SCF
------------------------------------------------------------------------ <-- SCF
Initial  -1.93440202E+004  0.00000000E+000                      6458.41  <-- SCF
      1  -1.93576378E+004  2.35713538E+000   5.04354578E-001    6514.71  <-- SCF
      2  -1.93578910E+004  2.35369512E+000   9.37880848E-003    6597.60  <-- SCF
      3  -1.93696021E+004  9.45651459E-001   4.33745169E-001    6662.59  <-- SCF
      4  -1.93533868E+004  1.87811166E+000  -6.00568497E-001    6730.88  <-- SCF
      5  -1.93522461E+004  1.70643594E+000  -4.22465528E-002    6799.21  <-- SCF
      6  -1.93515298E+004  1.71821158E+000  -2.65294032E-002    6873.72  <-- SCF
      7  -1.93511668E+004  1.55935697E+000  -1.34429884E-002    6942.77  <-- SCF
      8  -1.93508129E+004  1.49328829E+000  -1.31073215E-002    7010.92  <-- SCF
      9  -1.93508271E+004  1.47376090E+000   5.23184329E-004    7077.57  <-- SCF
     10  -1.93507919E+004  1.48218025E+000  -1.30304702E-003    7143.69  <-- SCF
     11  -1.93507637E+004  1.46647630E+000  -1.04253814E-003    7206.86  <-- SCF
     12  -1.93507572E+004  1.45944905E+000  -2.41025224E-004    7270.99  <-- SCF
     13  -1.93507501E+004  1.45426595E+000  -2.66069733E-004    7336.34  <-- SCF
     14  -1.93507494E+004  1.45557902E+000  -2.51556410E-005    7398.32  <-- SCF
     15  -1.93507495E+004  1.45554380E+000   4.42291303E-006    7460.59  <-- SCF
     16  -1.93507494E+004  1.45568829E+000  -2.84269273E-006    7518.87  <-- SCF
     17  -1.93507494E+004  1.45560148E+000  -3.88048812E-007    7564.54  <-- SCF
     18  -1.93507494E+004  1.45562328E+000   5.16195396E-007    7608.44  <-- SCF
     19  -1.93507494E+004  1.45565414E+000  -3.44716058E-009    7652.39  <-- SCF
     20  -1.93507494E+004  1.45563941E+000   7.91382640E-010    7695.91  <-- SCF
------------------------------------------------------------------------ <-- SCF
 
Final energy, E             =  -19350.16069283     eV
Final free energy (E-TS)    =  -19350.74941848     eV
(energies not corrected for finite basis set)
 
NB est. 0K energy (E-0.5TS)      =  -19350.45505566     eV
 

 *********************************** Forces ***********************************
 *                                                                            *
 *                        Cartesian components (eV/A)                         *
 * -------------------------------------------------------------------------- *
 *                   x                    y                    z              *
 *                                                                            *
 * O         1      1.46772              1.46772              1.03644         *
 * O         2     -1.28646              1.28646              1.33807         *
 * O         3      0.00000              0.00000              1.09163         *
 * O         4      1.28646             -1.28646              1.33807         *
 * O         5     -1.46772             -1.46772              1.03644         *
 * O         6     -0.07297              1.25208              0.33592         *
 * O         7      1.25208             -0.07297              0.33592         *
 * O         8     -1.25208              0.07297              0.33592         *
 * O         9      0.07297             -1.25208              0.33592         *
 * O        10      1.56187              1.56187             -1.45328         *
 * O        11     -1.32340              1.32340             -1.66275         *
 * O        12      0.00000              0.00000             -1.37748         *
 * O        13      1.32340             -1.32340             -1.66275         *
 * O        14     -1.56187             -1.56187             -1.45328         *
 * Mg        1      0.02919              1.96645              2.92049         *
 * Mg        2      1.96645              0.02919              2.92049         *
 * Mg        3     -1.96645             -0.02919              2.92049         *
 * Mg        4     -0.02919             -1.96645              2.92049         *
 * Mg        5     -2.88300              2.88300             -0.06398         *
 * Mg        6      0.00000              0.00000             -0.22859         *
 * Mg        7      2.88300             -2.88300             -0.06398         *
 * Ca        1      2.82145              2.82145             -0.11474         *
 * Ca        2     -2.82145             -2.82145             -0.11474         *
 * Ca        3      0.03392              3.13890             -2.66767         *
 * Ca        4      3.13890              0.03392             -2.66767         *
 * Ca        5     -3.13890             -0.03392             -2.66767         *
 * Ca        6     -0.03392             -3.13890             -2.66767         *
 *                                                                            *
 ******************************************************************************

 ***************** Stress Tensor *****************
 *                                               *
 *          Cartesian components (GPa)           *
 * --------------------------------------------- *
 *             x             y             z     *
 *                                               *
 *  x     16.152728     -0.607549      0.000000  *
 *  y     -0.607549     16.152728      0.000000  *
 *  z      0.000000      0.000000     16.003989  *
 *                                               *
 *  Pressure:  -16.1031                          *
 *                                               *
 *************************************************

 *********** Constrained Stress Tensor ***********
 *                                               *
 *          Cartesian components (GPa)           *
 * --------------------------------------------- *
 *             x             y             z     *
 *                                               *
 *  x     16.443629      0.000000      0.000000  *
 *  y      0.000000     16.443629      0.000000  *
 *  z      0.000000      0.000000     16.443629  *
 *                                               *
 *  Pressure:  -16.4436                          *
 *                                               *
 *************************************************
  
 +------------+-------------+-------------+-----------------+ <-- min BFGS
 |    Step    |   lambda    |   F.delta   |    enthalpy     | <-- min BFGS
 +------------+-------------+-------------+-----------------+ <-- min BFGS
 |  previous  |    0.000000 |    0.097400 |   -19348.038653 | <-- min BFGS
 | trial step |    1.000000 |    0.097082 |   -19350.735233 | <-- min BFGS
 +------------+-------------+-------------+-----------------+ <-- min BFGS
  
 BFGS: finished iteration     3 with enthalpy= -1.93507352E+004 eV
  
 +-----------+-----------------+-----------------+------------+-----+ <-- BFGS
 | Parameter |      value      |    tolerance    |    units   | OK? | <-- BFGS
 +-----------+-----------------+-----------------+------------+-----+ <-- BFGS
 |  dE/ion   |   9.987333E-002 |   2.000000E-005 |         eV | No  | <-- BFGS
 |  |F|max   |   4.119505E+000 |   5.000000E-002 |       eV/A | No  | <-- BFGS
 |  |dR|max  |   1.642331E-002 |   1.000000E-003 |          A | No  | <-- BFGS
 |   Smax    |   1.610310E+001 |   1.000000E-001 |        GPa | No  | <-- BFGS
 +-----------+-----------------+-----------------+------------+-----+ <-- BFGS
  

================================================================================
 Starting BFGS iteration          4 ...
================================================================================
  
 +------------+-------------+-------------+-----------------+ <-- min BFGS
 |    Step    |   lambda    |   F.delta   |    enthalpy     | <-- min BFGS
 +------------+-------------+-------------+-----------------+ <-- min BFGS
 |  previous  |    0.000000 |    0.096783 |   -19350.735233 | <-- min BFGS
 +------------+-------------+-------------+-----------------+ <-- min BFGS
  

--------------------------------------------------------------------------------
 BFGS: starting iteration         4 with trial guess (lambda=  1.000000)
--------------------------------------------------------------------------------

                           -------------------------------
                                      Unit Cell
                           -------------------------------
        Real Lattice(A)              Reciprocal Lattice(1/A)
   8.0594737   0.0000000   0.0000000        0.7796024  -0.0000000   0.0000000
   0.0000000   8.0594737   0.0000000       -0.0000000   0.7796024   0.0000000
   0.0000000   0.0000000   8.0594737        0.0000000   0.0000000   0.7796024

                       Lattice parameters(A)       Cell Angles
                    a =    8.059474          alpha =   90.000000
                    b =    8.059474          beta  =   90.000000
                    c =    8.059474          gamma =   90.000000

                Current cell volume =  523.504044 A**3

                           -------------------------------
                                     Cell Contents
                           -------------------------------

            xxxxxxxxxxxxxxxxxxxxxxxxxxxxxxxxxxxxxxxxxxxxxxxxxxxxxxxxxxxx
            x  Element    Atom        Fractional coordinates of atoms  x
            x            Number           u          v          w      x
            x----------------------------------------------------------x
            x  O            1         0.002690   0.002690   0.001975   x
            x  O            2         0.664304   0.002363   0.002436   x
            x  O            3         0.333333   0.333333   0.001991   x
            x  O            4         0.002363   0.664304   0.002436   x
            x  O            5         0.663976   0.663976   0.001975   x
            x  O            6         0.333158   0.002262   0.334033   x
            x  O            7         0.002262   0.333158   0.334033   x
            x  O            8         0.664404   0.333509   0.334033   x
            x  O            9         0.333509   0.664404   0.334033   x
            x  O           10         0.002950   0.002950   0.663947   x
            x  O           11         0.664143   0.002523   0.663649   x
            x  O           12         0.333333   0.333333   0.664157   x
            x  O           13         0.002523   0.664143   0.663649   x
            x  O           14         0.663716   0.663716   0.663947   x
            x  Mg           1         0.333385   0.003542   0.005550   x
            x  Mg           2         0.003542   0.333385   0.005550   x
            x  Mg           3         0.663124   0.333281   0.005550   x
            x  Mg           4         0.333281   0.663124   0.005550   x
            x  Mg           5         0.661212   0.005455   0.333218   x
            x  Mg           6         0.333333   0.333333   0.332945   x
            x  Mg           7         0.005455   0.661212   0.333218   x
            x  Ca           1         0.005475   0.005475   0.333123   x
            x  Ca           2         0.661192   0.661192   0.333123   x
            x  Ca           3         0.333395   0.006250   0.661469   x
            x  Ca           4         0.006250   0.333395   0.661469   x
            x  Ca           5         0.660417   0.333272   0.661469   x
            x  Ca           6         0.333272   0.660417   0.661469   x
            xxxxxxxxxxxxxxxxxxxxxxxxxxxxxxxxxxxxxxxxxxxxxxxxxxxxxxxxxxxx


------------------------------------------------------------------------ <-- SCF
SCF loop      Energy           Fermi           Energy gain       Timer   <-- SCF
                               energy          per atom          (sec)   <-- SCF
------------------------------------------------------------------------ <-- SCF
Initial  -1.93467919E+004  0.00000000E+000                      7889.89  <-- SCF
      1  -1.93601156E+004  2.55142992E+000   4.93470397E-001    7945.19  <-- SCF
      2  -1.93603613E+004  2.54809472E+000   9.09758195E-003    8026.84  <-- SCF
      3  -1.93706962E+004  1.09532081E+000   3.82774205E-001    8093.37  <-- SCF
      4  -1.93557565E+004  2.09939852E+000  -5.53322753E-001    8159.07  <-- SCF
      5  -1.93546410E+004  1.88200498E+000  -4.13122077E-002    8225.78  <-- SCF
      6  -1.93541530E+004  1.90402621E+000  -1.80739576E-002    8294.54  <-- SCF
      7  -1.93537772E+004  1.75087159E+000  -1.39206439E-002    8358.86  <-- SCF
      8  -1.93534753E+004  1.68714214E+000  -1.11815645E-002    8425.34  <-- SCF
      9  -1.93534814E+004  1.66841837E+000   2.26610265E-004    8490.43  <-- SCF
     10  -1.93534642E+004  1.67523958E+000  -6.36346876E-004    8555.41  <-- SCF
     11  -1.93534306E+004  1.66096819E+000  -1.24642710E-003    8617.84  <-- SCF
     12  -1.93534254E+004  1.65416300E+000  -1.92269409E-004    8683.62  <-- SCF
     13  -1.93534218E+004  1.64947971E+000  -1.32135090E-004    8749.15  <-- SCF
     14  -1.93534209E+004  1.65141478E+000  -3.33278744E-005    8809.83  <-- SCF
     15  -1.93534209E+004  1.65128454E+000   1.40059809E-006    8868.13  <-- SCF
     16  -1.93534209E+004  1.65138836E+000  -1.85250554E-006    8922.94  <-- SCF
     17  -1.93534209E+004  1.65130401E+000   8.78174640E-008    8966.73  <-- SCF
     18  -1.93534209E+004  1.65130245E+000   4.29663370E-009    9010.10  <-- SCF
------------------------------------------------------------------------ <-- SCF
 
Final energy, E             =  -19352.86482878     eV
Final free energy (E-TS)    =  -19353.42088900     eV
(energies not corrected for finite basis set)
 
NB est. 0K energy (E-0.5TS)      =  -19353.14285889     eV
 

 *********************************** Forces ***********************************
 *                                                                            *
 *                        Cartesian components (eV/A)                         *
 * -------------------------------------------------------------------------- *
 *                   x                    y                    z              *
 *                                                                            *
 * O         1      1.53301              1.53301              1.04744         *
 * O         2     -1.34209              1.34209              1.40263         *
 * O         3      0.00000              0.00000              1.13944         *
 * O         4      1.34209             -1.34209              1.40263         *
 * O         5     -1.53301             -1.53301              1.04744         *
 * O         6     -0.05731              1.31117              0.31340         *
 * O         7      1.31117             -0.05731              0.31340         *
 * O         8     -1.31117              0.05731              0.31340         *
 * O         9      0.05731             -1.31117              0.31340         *
 * O        10      1.59007              1.59007             -1.48852         *
 * O        11     -1.33801              1.33801             -1.74544         *
 * O        12      0.00000              0.00000             -1.43803         *
 * O        13      1.33801             -1.33801             -1.74544         *
 * O        14     -1.59007             -1.59007             -1.48852         *
 * Mg        1      0.03128              2.06502              2.96492         *
 * Mg        2      2.06502              0.03128              2.96492         *
 * Mg        3     -2.06502             -0.03128              2.96492         *
 * Mg        4     -0.03128             -2.06502              2.96492         *
 * Mg        5     -2.93734              2.93734             -0.06863         *
 * Mg        6      0.00000              0.00000             -0.25152         *
 * Mg        7      2.93734             -2.93734             -0.06863         *
 * Ca        1      2.81613              2.81613             -0.11999         *
 * Ca        2     -2.81613             -2.81613             -0.11999         *
 * Ca        3      0.03561              3.08349             -2.65454         *
 * Ca        4      3.08349              0.03561             -2.65454         *
 * Ca        5     -3.08349             -0.03561             -2.65454         *
 * Ca        6     -0.03561             -3.08349             -2.65454         *
[...]
 * O         4      1.75379             -1.75379              1.77185         *
 * O         5     -2.12551             -2.12551              0.58423         *
 * O         6      0.37767              1.34259             -0.46076         *
 * O         7      1.34259              0.37767             -0.46076         *
 * O         8     -1.34259             -0.37767             -0.46076         *
 * O         9     -0.37767             -1.34259             -0.46076         *
 * O        10      1.18506              1.18506             -1.23771         *
 * O        11     -0.84526              0.84526             -2.58762         *
 * O        12      0.00000              0.00000             -1.58410         *
 * O        13      0.84526             -0.84526             -2.58762         *
 * O        14     -1.18506             -1.18506             -1.23771         *
 * Mg        1      0.11382              1.87305              1.84027         *
 * Mg        2      1.87305              0.11382              1.84027         *
 * Mg        3     -1.87305             -0.11382              1.84027         *
 * Mg        4     -0.11382             -1.87305              1.84027         *
 * Mg        5     -1.88795              1.88795             -0.17759         *
 * Mg        6      0.00000              0.00000             -0.15171         *
 * Mg        7      1.88795             -1.88795             -0.17759         *
 * Ca        1      0.26664              0.26664             -0.28368         *
 * Ca        2     -0.26664             -0.26664             -0.28368         *
 * Ca        3      0.13415              0.36625             -0.28049         *
 * Ca        4      0.36625              0.13415             -0.28049         *
 * Ca        5     -0.36625             -0.13415             -0.28049         *
 * Ca        6     -0.13415             -0.36625             -0.28049         *
 *                                                                            *
 ******************************************************************************

 ***************** Stress Tensor *****************
 *                                               *
 *          Cartesian components (GPa)           *
 * --------------------------------------------- *
 *             x             y             z     *
 *                                               *
 *  x     -0.392218     -1.201790      0.000000  *
 *  y     -1.201790     -0.392218      0.000000  *
 *  z      0.000000      0.000000      0.744680  *
 *                                               *
 *  Pressure:    0.0133                          *
 *                                               *
 *************************************************

 *********** Constrained Stress Tensor ***********
 *                                               *
 *          Cartesian components (GPa)           *
 * --------------------------------------------- *
 *             x             y             z     *
 *                                               *
 *  x     -0.013023     -0.000000      0.000000  *
 *  y     -0.000000     -0.013023      0.000000  *
 *  z      0.000000      0.000000     -0.013023  *
 *                                               *
 *  Pressure:    0.0130                          *
 *                                               *
 *************************************************
  
 +------------+-------------+-------------+-----------------+ <-- min BFGS
 |    Step    |   lambda    |   F.delta   |    enthalpy     | <-- min BFGS
 +------------+-------------+-------------+-----------------+ <-- min BFGS
 |  previous  |    0.000000 |    0.013170 |   -19385.438552 | <-- min BFGS
 | trial step |    1.000000 |    0.012888 |   -19385.792969 | <-- min BFGS
 +------------+-------------+-------------+-----------------+ <-- min BFGS
  
 BFGS: finished iteration    30 with enthalpy= -1.93857930E+004 eV
  
 +-----------+-----------------+-----------------+------------+-----+ <-- BFGS
 | Parameter |      value      |    tolerance    |    units   | OK? | <-- BFGS
 +-----------+-----------------+-----------------+------------+-----+ <-- BFGS
 |  dE/ion   |   1.312656E-002 |   2.000000E-005 |         eV | No  | <-- BFGS
 |  |F|max   |   3.062167E+000 |   5.000000E-002 |       eV/A | No  | <-- BFGS
 |  |dR|max  |   8.998460E-003 |   1.000000E-003 |          A | No  | <-- BFGS
 |   Smax    |   1.302337E-002 |   1.000000E-001 |        GPa | Yes | <-- BFGS
 +-----------+-----------------+-----------------+------------+-----+ <-- BFGS
  
 BFGS : WARNING - Geometry optimization failed to converge after         30 steps

================================================================================
 BFGS : Final Configuration:
================================================================================

                           -------------------------------
                                      Unit Cell
                           -------------------------------
        Real Lattice(A)              Reciprocal Lattice(1/A)
   7.0210908   0.0000000   0.0000000        0.8949016  -0.0000000   0.0000000
   0.0000000   7.0210908   0.0000000       -0.0000000   0.8949016   0.0000000
   0.0000000   0.0000000   7.0210908        0.0000000   0.0000000   0.8949016

                       Lattice parameters(A)       Cell Angles
                    a =    7.021091          alpha =   90.000000
                    b =    7.021091          beta  =   90.000000
                    c =    7.021091          gamma =   90.000000

                Current cell volume =  346.109700 A**3

                           -------------------------------
                                     Cell Contents
                           -------------------------------

            xxxxxxxxxxxxxxxxxxxxxxxxxxxxxxxxxxxxxxxxxxxxxxxxxxxxxxxxxxxx
            x  Element    Atom        Fractional coordinates of atoms  x
            x            Number           u          v          w      x
            x----------------------------------------------------------x
            x  O            1         0.025965   0.025965   0.012160   x
            x  O            2         0.644581   0.022086   0.023078   x
            x  O            3         0.333333   0.333333   0.017786   x
            x  O            4         0.022086   0.644581   0.023078   x
            x  O            5         0.640702   0.640702   0.012160   x
            x  O            6         0.336553   0.020338   0.331774   x
            x  O            7         0.020338   0.336553   0.331774   x
            x  O            8         0.646329   0.330114   0.331774   x
            x  O            9         0.330114   0.646329   0.331774   x
            x  O           10         0.020307   0.020307   0.646849   x
            x  O           11         0.650520   0.016146   0.636145   x
            x  O           12         0.333333   0.333333   0.643872   x
            x  O           13         0.016146   0.650520   0.636145   x
            x  O           14         0.646359   0.646359   0.646849   x
            x  Mg           1         0.334192   0.029867   0.035489   x
            x  Mg           2         0.029867   0.334192   0.035489   x
            x  Mg           3         0.636800   0.332475   0.035489   x
            x  Mg           4         0.332475   0.636800   0.035489   x
            x  Mg           5         0.630924   0.035742   0.331698   x
            x  Mg           6         0.333333   0.333333   0.328903   x
            x  Mg           7         0.035742   0.630924   0.331698   x
            x  Ca           1         0.023444   0.023444   0.330562   x
            x  Ca           2         0.643223   0.643223   0.330562   x
            x  Ca           3         0.334496   0.024687   0.644851   x
            x  Ca           4         0.024687   0.334496   0.644851   x
            x  Ca           5         0.641980   0.332171   0.644851   x
            x  Ca           6         0.332171   0.641980   0.644851   x
            xxxxxxxxxxxxxxxxxxxxxxxxxxxxxxxxxxxxxxxxxxxxxxxxxxxxxxxxxxxx


 BFGS : Final Enthalpy     = -1.93857930E+004 eV
 BFGS : Final <frequency>  unchanged from initial value
 BFGS : Final bulk modulus unchanged from initial value
  
  **********************************************************
  *** There were at least     1 warnings during this run ***
  *** => please check the whole of this file carefully!  ***
  **********************************************************

 ***************************** Symmetrised Forces *****************************
 *                                                                            *
 *                        Cartesian components (eV/A)                         *
 * -------------------------------------------------------------------------- *
 *                   x                    y                    z              *
 *                                                                            *
 * O         1      2.12551              2.12551              0.58423         *
 * O         2     -1.75379              1.75379              1.77185         *
 * O         3      0.00000              0.00000              1.20073         *
 * O         4      1.75379             -1.75379              1.77185         *
 * O         5     -2.12551             -2.12551              0.58423         *
 * O         6      0.37767              1.34259             -0.46076         *
 * O         7      1.34259              0.37767             -0.46076         *
 * O         8     -1.34259             -0.37767             -0.46076         *
 * O         9     -0.37767             -1.34259             -0.46076         *
 * O        10      1.18506              1.18506             -1.23771         *
 * O        11     -0.84526              0.84526             -2.58762         *
 * O        12      0.00000              0.00000             -1.58410         *
 * O        13      0.84526             -0.84526             -2.58762         *
 * O        14     -1.18506             -1.18506             -1.23771         *
 * Mg        1      0.11382              1.87305              1.84027         *
 * Mg        2      1.87305              0.11382              1.84027         *
 * Mg        3     -1.87305             -0.11382              1.84027         *
 * Mg        4     -0.11382             -1.87305              1.84027         *
 * Mg        5     -1.88795              1.88795             -0.17759         *
 * Mg        6      0.00000              0.00000             -0.15171         *
 * Mg        7      1.88795             -1.88795             -0.17759         *
 * Ca        1      0.26664              0.26664             -0.28368         *
 * Ca        2     -0.26664             -0.26664             -0.28368         *
 * Ca        3      0.13415              0.36625             -0.28049         *
 * Ca        4      0.36625              0.13415             -0.28049         *
 * Ca        5     -0.36625             -0.13415             -0.28049         *
 * Ca        6     -0.13415             -0.36625             -0.28049         *
 *                                                                            *
 ******************************************************************************

 *********** Symmetrised Stress Tensor ***********
 *                                               *
 *          Cartesian components (GPa)           *
 * --------------------------------------------- *
 *             x             y             z     *
 *                                               *
 *  x     -0.013023     -0.000000      0.000000  *
 *  y     -0.000000     -0.013023      0.000000  *
 *  z      0.000000      0.000000     -0.013023  *
 *                                               *
 *  Pressure:    0.0130                          *
 *                                               *
 *************************************************

 Pseudo atomic calculation performed for O 2s2 2p4

 Converged in 30 iterations to a total energy of -432.5600 eV


 Pseudo atomic calculation performed for Mg 2p6 3s2

 Converged in 23 iterations to a total energy of -1024.6674 eV


 Pseudo atomic calculation performed for Ca 3s2 3p6 4s2

 Converged in 24 iterations to a total energy of -1000.4575 eV

Charge spilling parameter for spin component 1 = 0.31%

     Atomic Populations (Mulliken)
     -----------------------------
Species   Ion     s      p      d      f     Total  Charge (e)
==============================================================
  O        1     1.92   4.77   0.00   0.00   6.69    -0.69
  O        2     1.92   4.81   0.00   0.00   6.73    -0.73
  O        3     1.87   5.07   0.00   0.00   6.94    -0.94
  O        4     1.92   4.81   0.00   0.00   6.73    -0.73
  O        5     1.92   4.77   0.00   0.00   6.69    -0.69
  O        6     1.86   5.04   0.00   0.00   6.90    -0.90
  O        7     1.86   5.04   0.00   0.00   6.90    -0.90
  O        8     1.86   5.04   0.00   0.00   6.90    -0.90
  O        9     1.86   5.04   0.00   0.00   6.90    -0.90
  O       10     1.91   4.74   0.00   0.00   6.66    -0.66
  O       11     1.91   4.80   0.00   0.00   6.71    -0.71
  O       12     1.85   4.98   0.00   0.00   6.83    -0.83
  O       13     1.91   4.80   0.00   0.00   6.71    -0.71
  O       14     1.91   4.74   0.00   0.00   6.66    -0.66
  Mg       1     0.54   6.74   0.00   0.00   7.28     0.72
  Mg       2     0.54   6.74   0.00   0.00   7.28     0.72
  Mg       3     0.54   6.74   0.00   0.00   7.28     0.72
  Mg       4     0.54   6.74   0.00   0.00   7.28     0.72
  Mg       5     0.54   6.77   0.00   0.00   7.31     0.69
  Mg       6     0.42   6.79   0.00   0.00   7.20     0.80
  Mg       7     0.54   6.77   0.00   0.00   7.31     0.69
  Ca       1     2.10   5.97   0.88   0.00   8.95     1.05
  Ca       2     2.10   5.97   0.88   0.00   8.95     1.05
  Ca       3     2.17   5.97   0.91   0.00   9.04     0.96
  Ca       4     2.17   5.97   0.91   0.00   9.04     0.96
  Ca       5     2.17   5.97   0.91   0.00   9.04     0.96
  Ca       6     2.17   5.97   0.91   0.00   9.04     0.96
==============================================================

            Bond              Population      Length (A)
============================================================
         O 9  -- Mg 7              0.25        2.06964
         O 8  -- Mg 5              0.25        2.06964
         O 6  -- Mg 5              0.25        2.06964
         O 7  -- Mg 7              0.25        2.06964
         O 9  -- Mg 4              0.27        2.08139
         O 8  -- Mg 3              0.27        2.08139
         O 7  -- Mg 2              0.27        2.08139
         O 6  -- Mg 1              0.27        2.08139
         O 3  -- Mg 2              0.28        2.13430
         O 3  -- Mg 1              0.28        2.13430
         O 3  -- Mg 4              0.28        2.13430
         O 3  -- Mg 3              0.28        2.13430
         O 13 -- Mg 7              0.45        2.14639
         O 11 -- Mg 5              0.45        2.14639
         O 12 -- Ca 4              0.20        2.16706
         O 12 -- Ca 3              0.20        2.16706
         O 12 -- Ca 6              0.20        2.16706
         O 12 -- Ca 5              0.20        2.16706
         O 1  -- Mg 1              0.43        2.17045
         O 1  -- Mg 2              0.43        2.17045
         O 5  -- Mg 4              0.43        2.17045
         O 5  -- Mg 3              0.43        2.17045
         O 4  -- Mg 7              0.41        2.17109
         O 2  -- Mg 5              0.41        2.17109
         O 4  -- Mg 4              0.41        2.18170
         O 2  -- Mg 3              0.41        2.18170
         O 4  -- Mg 2              0.41        2.18170
         O 2  -- Mg 1              0.41        2.18170
         O 3  -- Mg 6              0.25        2.18438
         O 7  -- Mg 6              0.23        2.19778
         O 6  -- Mg 6              0.23        2.19778
         O 9  -- Mg 6              0.23        2.19778
         O 8  -- Mg 6              0.23        2.19778
         O 9  -- Ca 6              0.24        2.19841
         O 8  -- Ca 5              0.24        2.19841
         O 7  -- Ca 4              0.24        2.19841
         O 6  -- Ca 3              0.24        2.19841
         O 7  -- Ca 1              0.25        2.19849
         O 6  -- Ca 1              0.25        2.19849
         O 9  -- Ca 2              0.25        2.19849
         O 8  -- Ca 2              0.25        2.19849
         O 10 -- Ca 3              0.23        2.20620
         O 10 -- Ca 4              0.23        2.20620
         O 14 -- Ca 6              0.23        2.20620
         O 14 -- Ca 5              0.23        2.20620
         O 12 -- Mg 6              0.22        2.21142
         O 13 -- Ca 6              0.20        2.22049
         O 11 -- Ca 5              0.20        2.22049
         O 13 -- Ca 4              0.20        2.22049
         O 11 -- Ca 3              0.20        2.22049
         O 14 -- Ca 2              0.25        2.22090
         O 10 -- Ca 1              0.25        2.22090
         O 5  -- Ca 2              0.19        2.23566
         O 1  -- Ca 1              0.19        2.23566
         O 5  -- O 14             -0.03        2.56550
         O 1  -- O 10             -0.03        2.56550
         O 13 -- O 14             -0.03        2.59756
         O 11 -- O 14             -0.03        2.59756
         O 10 -- O 13             -0.03        2.59756
         O 10 -- O 11             -0.03        2.59756
         O 3  -- O 12             -0.06        2.62529
         O 7  -- O 8              -0.06        2.62634
         O 6  -- O 9              -0.06        2.62634
         O 1  -- O 4              -0.04        2.67897
         O 1  -- O 2              -0.04        2.67897
         O 4  -- O 5              -0.04        2.67897
         O 2  -- O 5              -0.04        2.67897
         Ca 4 -- Ca 5             -0.23        2.68707
         Ca 3 -- Ca 6             -0.23        2.68707
         O 4  -- O 13             -0.03        2.71733
         O 2  -- O 11             -0.03        2.71733
         Mg 4 -- Ca 6             -0.38        2.74294
         Mg 3 -- Ca 5             -0.38        2.74294
         Mg 2 -- Ca 4             -0.38        2.74294
         Mg 1 -- Ca 3             -0.38        2.74294
         Mg 7 -- Ca 1             -0.44        2.75728
         Mg 5 -- Ca 1             -0.44        2.75728
         Mg 7 -- Ca 2             -0.44        2.75728
         Mg 5 -- Ca 2             -0.44        2.75728
         Mg 2 -- Mg 3             -0.53        2.75979
         Mg 1 -- Mg 4             -0.53        2.75979
         Mg 4 -- Mg 7             -0.31        2.94405
         Mg 3 -- Mg 5             -0.31        2.94405
         Mg 2 -- Mg 7             -0.31        2.94405
         Mg 1 -- Mg 5             -0.31        2.94405
         Mg 5 -- Mg 6             -0.25        2.95494
         Mg 6 -- Mg 7             -0.25        2.95494
         Mg 2 -- Mg 6             -0.30        2.96374
         Mg 1 -- Mg 6             -0.30        2.96374
         Mg 4 -- Mg 6             -0.30        2.96374
         Mg 3 -- Mg 6             -0.30        2.96374
============================================================


Writing model to test_7.check

Writing analysis data to test_7.castep_bin
 
 A BibTeX formatted list of references used in this run has been written to 
 test_7.bib
 
Initialisation time =     27.38 s
Calculation time    =  29777.83 s
Finalisation time   =      2.11 s
Total time          =  29807.32 s
Peak Memory Use     = 1362184 kB
  
Overall parallel efficiency rating: Ideal (100%)                                
  
Data was distributed by:-
k-point (2-way); efficiency rating: Ideal (100%)                                
