 +-------------------------------------------------+
 |                                                 |
 |      CCC   AA    SSS  TTTTT  EEEEE  PPPP        |
 |     C     A  A  S       T    E      P   P       |
 |     C     AAAA   SS     T    EEE    PPPP        |
 |     C     A  A     S    T    E      P           |
 |      CCC  A  A  SSS     T    EEEEE  P           |
 |                                                 |
 +-------------------------------------------------+
 |                                                 |
 | Welcome to Academic Release CASTEP version 6.1  |
 | Ab Initio Total Energy Program                  |
 |                                                 |
 | Authors:                                        |
 | M. Segall, M. Probert, C. Pickard, P. Hasnip,   |
 | S. Clark, K. Refson, J. R. Yates, M. Payne      |
 |                                                 |
 | Contributors:                                   |
 | P. Lindan, P. Haynes, J. White, V. Milman,      |
 | N. Govind, M. Gibson, P. Tulip, V. Cocula,      |
 | B. Montanari, D. Quigley, M. Glover,            |
 | L. Bernasconi, A. Perlov, M. Plummer,           |
 | E. McNellis, J. Meyer, J. Gale, D. Jochym       |
 | J. Aarons, B. Walker, R. Gillen                 |
 |                                                 |
 | Copyright (c) 2000 - 2012                       |
 |                                                 |
 |     Distributed under the terms of an           |
 |     Agreement between the United Kingdom        |
 |     Car-Parrinello (UKCP) Consortium,           |
 |     Daresbury Laboratory and Accelrys, Inc.     |
 |                                                 |
 | Please cite                                     |
 |                                                 |
 |     "First principles methods using CASTEP"     |
 |                                                 |
 |         Zeitschrift fuer Kristallographie       |
 |           220(5-6) pp. 567-570 (2005)           |
 |                                                 |
 | S. J. Clark, M. D. Segall, C. J. Pickard,       |
 | P. J. Hasnip, M. J. Probert, K. Refson,         |
 | M. C. Payne                                     |
 |                                                 |
 |       in all publications arising from          |
 |              your use of CASTEP                 |
 |                                                 |
 +-------------------------------------------------+


 Compiled for linux_x86_64_gfortran on Wed Nov 21 15:08:09 2012
 from source code version eaed21d6e002+  2012-10-31
 using fast optimisation, fftw3 FFTs and openblas LAPACK and BLAS.


 Atomic calculation performed for O: 1s2 2s2 2p4

 Converged in 60 iterations to an ae energy of -2027.926 eV

   ============================================================                
   | Pseudopotential Report - Date of generation  5-05-2016   |                
   ------------------------------------------------------------                
   | Element: O Ionic charge:  6.00 Level of theory: LDA      |                
   |                                                          |                
   |               Reference Electronic Structure             |                
   |         Orbital         Occupation         Energy        |                
   |            2s              2.000           -0.873        |                
   |            2p              4.000           -0.338        |                
   |                                                          |                
   |                 Pseudopotential Definition               |                
   |        Beta     l      e      Rc     scheme   norm       |                
   |          1      0   -0.873   1.300     qc      0         |                
   |          2      0    0.250   1.300     qc      0         |                
   |          3      1   -0.338   1.300     qc      0         |                
   |          4      1    0.250   1.300     qc      0         |                
   |         loc     2    0.000   1.004     pn      0         |                
   |                                                          |                
   | Augmentation charge Rinner = 0.701                       |                
   | Partial core correction Rc = 0.701                       |                
   ------------------------------------------------------------                
   | "2|1.0|1.3|0.7|13|16|18|20:21(qc=7)"                     |                
   ------------------------------------------------------------                
   |      Author: Chris J. Pickard, Cambridge University      |                
   ============================================================                

 Atomic calculation performed for Mg: 1s2 2s2 2p6 3s2

 Converged in 47 iterations to an ae energy of -5427.407 eV

 Identity difference:   5.17267234911703770E-004

   ============================================================                
   | Pseudopotential Report - Date of generation  5-05-2016   |                
   ------------------------------------------------------------                
   | Element: Mg Ionic charge:  8.00 Level of theory: LDA     |                
   |                                                          |                
   |               Reference Electronic Structure             |                
   |         Orbital         Occupation         Energy        |                
   |            2p              6.000           -1.717        |                
   |            3s              2.000           -0.176        |                
   |                                                          |                
   |                 Pseudopotential Definition               |                
   |        Beta     l      e      Rc     scheme   norm       |                
   |          1      0   -0.176   1.994     qc      1         |                
   |          2      1   -1.717   1.994     qc      0         |                
   |          3      1    0.000   1.994     qc      0         |                
   |          4      1    0.250   1.994     qc      0         |                
   |         loc     2    0.000   1.605     pn      0         |                
   |                                                          |                
   | Augmentation charge Rinner = 1.405                       |                
   | Partial core correction Rc = 1.405                       |                
   ------------------------------------------------------------                
   | "2|1.6|2|1.4|6|7|8|30NH:21U:31UU:32LGG(qc=4.5)[]"        |                
   ------------------------------------------------------------                
   |      Author: Chris J. Pickard, Cambridge University      |                
   ============================================================                

 Doing a self consistent calculation for the test configuration

 Atomic calculation performed for Mg: 1s2 2s2 2p6 3s2

 Converged in 47 iterations to an ae energy of -5427.407 eV

 ---------------------------------------
 AE eigenvalue nl 10 =      -46.06264936
 AE eigenvalue nl 20 =       -2.91364591
 AE eigenvalue nl 21 =       -1.71672732
 AE eigenvalue nl 30 =       -0.17593422
 ---------------------------------------
 PS eigenvalue nl 21 =       -1.71622098
 PS eigenvalue nl 30 =       -0.17592300
 ---------------------------------------

 Atomic calculation performed for Ca: 1s2 2s2 2p6 3s2 3p6 4s2

 Converged in 44 iterations to an ae energy of -18468.058 eV

   ============================================================                
   | Pseudopotential Report - Date of generation  5-05-2016   |                
   ------------------------------------------------------------                
   | Element: Ca Ionic charge: 10.00 Level of theory: LDA     |                
   |                                                          |                
   |               Reference Electronic Structure             |                
   |         Orbital         Occupation         Energy        |                
   |            3s              2.000           -1.721        |                
   |            3p              6.000           -1.028        |                
   |            4s              2.000           -0.142        |                
   |                                                          |                
   |                 Pseudopotential Definition               |                
   |        Beta     l      e      Rc     scheme   norm       |                
   |          1      0   -1.721   2.005     qc      0         |                
   |          2      0   -0.142   2.005     qc      0         |                
   |          3      1   -1.028   2.005     qc      0         |                
   |          4      1    0.250   2.005     qc      0         |                
   |          5      2    0.000   2.005     qc      0         |                
   |          6      2    1.000   2.005     qc      0         |                
   |         loc     3    0.000   1.601     pn      0         |                
   |                                                          |                
   | Augmentation charge Rinner = 1.401                       |                
   | Partial core correction Rc = 1.401                       |                
   ------------------------------------------------------------                
   | "3|1.6|2.0|1.4|7|9|10|30U:40U:31:32U=0U=1.0"             |                
   ------------------------------------------------------------                
   |      Author: Chris J. Pickard, Cambridge University      |                
   ============================================================                

 Pseudo atomic calculation performed for O 2s2 2p4

 Converged in 30 iterations to a total energy of -432.5600 eV


 Pseudo atomic calculation performed for Mg 2p6 3s2

 Converged in 23 iterations to a total energy of -1024.6674 eV


 Pseudo atomic calculation performed for Ca 3s2 3p6 4s2

 Converged in 24 iterations to a total energy of -1000.4575 eV

 Calculation parallelised over 2 processes.
 Data is distributed by k-point(2-way)

 ************************************ Title ************************************
 MgO

 ***************************** General Parameters ******************************
  
 output verbosity                               : normal  (1)
 write checkpoint data to                       : test_10.check
 type of calculation                            : geometry optimization
 stress calculation                             : on
 density difference calculation                 : off
 electron localisation func (ELF) calculation   : off
 Hirshfeld analysis                             : off
 unlimited duration calculation
 timing information                             : on
 memory usage estimate                          : on
 write final potential to formatted file        : off
 write final density to formatted file          : off
 write BibTeX reference list                    : on
  
 output         length unit                     : A
 output           mass unit                     : amu
 output           time unit                     : ps
 output         charge unit                     : e
 output         energy unit                     : eV
 output          force unit                     : eV/A
 output       velocity unit                     : A/ps
 output       pressure unit                     : GPa
 output     inv_length unit                     : 1/A
 output      frequency unit                     : cm-1
 output force constant unit                     : eV/A**2
 output         volume unit                     : A**3
 output   IR intensity unit                     : (D/A)**2/amu
 output         dipole unit                     : D
 output         efield unit                     : eV/A/e
 output        entropy unit                     : J/mol/K
  
 wavefunctions paging                           : none
 random number generator seed                   : randomised (125238851)
 data distribution                              : optimal for this architecture
 optimization strategy                          : maximize speed(+++)

 *********************** Exchange-Correlation Parameters ***********************
  
 using functional                               : Local Density Approximation
 Divergence correction                          : off
 DFT+D: Semi-empirical dispersion correction    : off

 ************************* Pseudopotential Parameters **************************
  
 pseudopotential representation                 : reciprocal space
 <beta|phi> representation                      : reciprocal space

 **************************** Basis Set Parameters *****************************
  
 plane wave basis set cut-off                   :   450.0000   eV
 size of standard grid                          :     2.0000
 size of   fine   gmax                          :    21.7358   1/A
 largest prime factor in FFT                    :          5
 finite basis set correction                    : automatic
 number of sample energies                      :          3
           sample  spacing                      :     5.0000   eV

 **************************** Electronic Parameters ****************************
  
 number of  electrons                           :  204.0    
 net charge of system                           :  0.000    
 net spin   of system                           :  0.000    
 number of  up  spins                           :  102.0    
 number of down spins                           :  102.0    
 treating system as non-spin-polarized
 number of bands                                :        122

 ********************* Electronic Minimization Parameters **********************
  
 Method: Treating system as metallic with density mixing treatment of electrons,
         and number of  SD  steps               :          1
         and number of  CG  steps               :          4
  
 total energy / atom convergence tol.           : 0.1000E-06   eV
 eigen-energy convergence tolerance             : 0.2647E-07   eV
 max force / atom convergence tol.              : ignored
 convergence tolerance window                   :          3   cycles
 max. number of SCF cycles                      :         60
 number of fixed-spin iterations                :         10
 smearing scheme                                : Gaussian
 smearing width                                 : 0.2000       eV
 Fermi energy convergence tolerance             : 0.2647E-08   eV
 periodic dipole correction                     : NONE

 ************************** Density Mixing Parameters **************************
  
 density-mixing scheme                          : Pulay
 max. length of mixing history                  :         30
 charge density mixing amplitude                : 0.8000    
 cut-off energy for mixing                      :  450.0       eV
 charge density mixing g-vector                 :  1.500       1/A

 *********************** Population Analysis Parameters ************************
  
 Population analysis with cutoff                :  3.000       A

 ********************** Geometry Optimization Parameters ***********************
  
 optimization method                            : BFGS
 variable cell method                           : fixed basis quality
 max. number of steps                           :         30
 estimated bulk modulus                         :  500.0       GPa
 estimated <frequency>                          :  1668.       cm-1
 geom line minimiser                            : on
 with line minimiser tolerance                  :     0.4000
 total energy convergence tolerance             : 0.2000E-04   eV/atom
        max ionic |force| tolerance             : 0.5000E-01   eV/A
 max ionic |displacement| tolerance             : 0.1000E-02   A
   max |stress component| tolerance             : 0.1000       GPa
 convergence tolerance window                   :          2   steps
 backup results every                           :          5   steps

 *******************************************************************************
  

                           -------------------------------
                                      Unit Cell
                           -------------------------------
        Real Lattice(A)                      Reciprocal Lattice(1/A)
   8.4000000   0.0000000   0.0000000        0.7479983   0.0000000   0.0000000
   0.0000000   8.4000000   0.0000000        0.0000000   0.7479983   0.0000000
   0.0000000   0.0000000   8.4000000        0.0000000   0.0000000   0.7479983

                       Lattice parameters(A)       Cell Angles
                    a =    8.400000          alpha =   90.000000
                    b =    8.400000          beta  =   90.000000
                    c =    8.400000          gamma =   90.000000

                       Current cell volume =  592.704000       A**3

                           -------------------------------
                                     Cell Contents
                           -------------------------------
                         Total number of ions in cell =   27
                      Total number of species in cell =    3
                        Max number of any one species =   14

            xxxxxxxxxxxxxxxxxxxxxxxxxxxxxxxxxxxxxxxxxxxxxxxxxxxxxxxxxxxx
            x  Element    Atom        Fractional coordinates of atoms  x
            x            Number           u          v          w      x
            x----------------------------------------------------------x
            x  O            1         0.000000   0.000000   0.000000   x
            x  O            2         0.666667   0.000000   0.000000   x
            x  O            3         0.333333   0.333333   0.000000   x
            x  O            4         0.000000   0.666667   0.000000   x
            x  O            5         0.666667   0.666667   0.000000   x
            x  O            6         0.333333   0.000000   0.333333   x
            x  O            7         0.000000   0.333333   0.333333   x
            x  O            8         0.666667   0.333333   0.333333   x
            x  O            9         0.333333   0.666667   0.333333   x
            x  O           10         0.000000   0.000000   0.666667   x
            x  O           11         0.666667   0.000000   0.666667   x
            x  O           12         0.333333   0.333333   0.666667   x
            x  O           13         0.000000   0.666667   0.666667   x
            x  O           14         0.666667   0.666667   0.666667   x
            x  Mg           1         0.333333   0.000000   0.000000   x
            x  Mg           2         0.000000   0.333333   0.000000   x
            x  Mg           3         0.666667   0.333333   0.000000   x
            x  Mg           4         0.333333   0.666667   0.000000   x
            x  Mg           5         0.666667   0.000000   0.333333   x
            x  Ca           1         0.000000   0.000000   0.333333   x
            x  Ca           2         0.333333   0.333333   0.333333   x
            x  Ca           3         0.000000   0.666667   0.333333   x
            x  Ca           4         0.666667   0.666667   0.333333   x
            x  Ca           5         0.333333   0.000000   0.666667   x
            x  Ca           6         0.000000   0.333333   0.666667   x
            x  Ca           7         0.666667   0.333333   0.666667   x
            x  Ca           8         0.333333   0.666667   0.666667   x
            xxxxxxxxxxxxxxxxxxxxxxxxxxxxxxxxxxxxxxxxxxxxxxxxxxxxxxxxxxxx


                         No user defined ionic velocities

                           -------------------------------
                                   Details of Species
                           -------------------------------

                               Mass of species in AMU
                                    O   15.9994000
                                    Mg   24.3050000
                                    Ca   40.0780000

                          Electric Quadrupole Moment (Barn)
                                    O   -0.0255800 Isotope 17
                                    Mg    0.1994000 Isotope 25
                                    Ca   -0.0408000 Isotope 43

                          Files used for pseudopotentials:
                                    O Pseudopotential generated on-the-fly
                                    Mg Pseudopotential generated on-the-fly
                                    Ca Pseudopotential generated on-the-fly

                           -------------------------------
                              k-Points For BZ Sampling
                           -------------------------------
                       MP grid size for SCF calculation is  3  3  3
                         Number of kpoints used =          10

             +++++++++++++++++++++++++++++++++++++++++++++++++++++++
             +  Number       Fractional coordinates        Weight  +
             +-----------------------------------------------------+
             +     1  -0.333333  -0.333333   0.000000   0.0740741  +
             +     2  -0.333333   0.000000  -0.333333   0.1481481  +
             +     3  -0.333333   0.333333   0.000000   0.0740741  +
             +     4   0.000000   0.000000  -0.333333   0.0740741  +
             +     5   0.000000   0.000000   0.000000   0.0370370  +
             +     6   0.000000   0.333333   0.000000   0.1481481  +
             +     7   0.000000   0.333333   0.333333   0.1481481  +
             +     8   0.333333  -0.333333  -0.333333   0.0740741  +
             +     9   0.333333  -0.333333   0.333333   0.0740741  +
             +    10   0.333333   0.333333  -0.333333   0.1481481  +
             +++++++++++++++++++++++++++++++++++++++++++++++++++++++

                           -------------------------------
                               Symmetry and Constraints
                           -------------------------------

                      Number of symmetry operations   =           2
                      Number of ionic constraints     =           3
                      Maximum deviation from symmetry = 0.839999E-09     ANG
               Point group of crystal =     3: Cs, m, m
           Set iprint > 1 for details on symmetry rotations/translations

                          Centre of mass is constrained
             Set iprint > 1 for details of linear ionic constraints

                         Number of cell constraints= 5
                         Cell constraints are:  1 1 1 0 0 0

                         External pressure/stress (GPa)
                          0.00000   0.00000   0.00000
                                    0.00000   0.00000
                                              0.00000
  
+---------------- MEMORY AND SCRATCH DISK ESTIMATES PER NODE -----------------+
|                                                     Memory          Disk    |
| Model and support data                              716.3 MB         0.0 MB |
| Electronic energy minimisation requirements         291.2 MB         0.0 MB |
|                                               ----------------------------- |
| Approx. total storage required per node            1007.5 MB         0.0 MB |
|                                                                             |
| Requirements will fluctuate during execution and may exceed these estimates |
+-----------------------------------------------------------------------------+
Calculating finite basis set correction with  3 cut-off energies.
Calculating total energy with cut-off of  440.000eV.
------------------------------------------------------------------------ <-- SCF
SCF loop      Energy           Fermi           Energy gain       Timer   <-- SCF
                               energy          per atom          (sec)   <-- SCF
------------------------------------------------------------------------ <-- SCF
Initial  -1.68485342E+004  0.00000000E+000                        39.60  <-- SCF
      1  -1.85960059E+004  4.58816322E+000   6.47211737E+001     144.69  <-- SCF
      2  -1.93028471E+004 -5.79794208E-001   2.61793056E+001     222.61  <-- SCF
      3  -1.93313628E+004 -7.98726086E-001   1.05613535E+000     301.45  <-- SCF
      4  -1.94036711E+004  3.97650690E+000   2.67808667E+000     399.55  <-- SCF
      5  -1.93062103E+004  1.29531520E+000  -3.60965936E+000     500.16  <-- SCF
      6  -1.93101709E+004  1.34603790E+000   1.46687275E-001     587.04  <-- SCF
      7  -1.93039343E+004  9.85106128E-001  -2.30982855E-001     676.39  <-- SCF
      8  -1.93032473E+004  1.24307884E+000  -2.54450733E-002     767.89  <-- SCF
      9  -1.93002164E+004  1.13419999E+000  -1.12255902E-001     857.86  <-- SCF
     10  -1.93001566E+004  1.17274327E+000  -2.21665105E-003     953.33  <-- SCF
     11  -1.92994417E+004  1.19355137E+000  -2.64753105E-002    1044.78  <-- SCF
     12  -1.92989379E+004  1.26396610E+000  -1.86588738E-002    1141.11  <-- SCF
     13  -1.92987950E+004  1.25570508E+000  -5.29270447E-003    1231.66  <-- SCF
     14  -1.92985673E+004  1.30671463E+000  -8.43320797E-003    1327.02  <-- SCF
     15  -1.92985694E+004  1.31915362E+000   7.79088220E-005    1421.28  <-- SCF
     16  -1.92984597E+004  1.30784451E+000  -4.06310860E-003    1513.11  <-- SCF
     17  -1.92984680E+004  1.31123084E+000   3.07521500E-004    1605.86  <-- SCF
     18  -1.92984414E+004  1.30079419E+000  -9.84935082E-004    1696.38  <-- SCF
     19  -1.92984351E+004  1.30334565E+000  -2.34901732E-004    1789.39  <-- SCF
     20  -1.92984350E+004  1.30463238E+000  -5.37620738E-006    1884.34  <-- SCF
     21  -1.92984345E+004  1.30515103E+000  -1.68948980E-005    1963.34  <-- SCF
     22  -1.92984343E+004  1.30575437E+000  -9.05146982E-006    2043.59  <-- SCF
     23  -1.92984343E+004  1.30621866E+000   9.80800023E-008    2121.66  <-- SCF
     24  -1.92984343E+004  1.30624013E+000   1.55275759E-008    2179.79  <-- SCF
     25  -1.92984343E+004  1.30622426E+000  -3.29202345E-009    2238.13  <-- SCF
------------------------------------------------------------------------ <-- SCF
 
Final energy, E             =  -19297.69389654     eV
Final free energy (E-TS)    =  -19298.43426175     eV
(energies not corrected for finite basis set)
 
NB est. 0K energy (E-0.5TS)      =  -19298.06407914     eV
 
Calculating total energy with cut-off of  445.000eV.
------------------------------------------------------------------------ <-- SCF
SCF loop      Energy           Fermi           Energy gain       Timer   <-- SCF
                               energy          per atom          (sec)   <-- SCF
------------------------------------------------------------------------ <-- SCF
Initial  -1.92976939E+004  0.00000000E+000                      2259.20  <-- SCF
      1  -1.92988176E+004  1.30170328E+000   4.16177256E-002    2336.43  <-- SCF
      2  -1.92988177E+004  1.30170533E+000   4.59931711E-006    2418.07  <-- SCF
      3  -1.92988222E+004  1.31756575E+000   1.65028548E-004    2498.34  <-- SCF
      4  -1.92988227E+004  1.31653823E+000   1.91156819E-005    2578.19  <-- SCF
      5  -1.92988193E+004  1.29446987E+000  -1.25662789E-004    2665.70  <-- SCF
      6  -1.92988227E+004  1.29500569E+000   1.25595068E-004    2745.27  <-- SCF
      7  -1.92988172E+004  1.30681017E+000  -2.03718481E-004    2824.61  <-- SCF
      8  -1.92988184E+004  1.30800066E+000   4.46633139E-005    2913.14  <-- SCF
      9  -1.92988179E+004  1.30758373E+000  -1.90980870E-005    2996.08  <-- SCF
     10  -1.92988177E+004  1.30839588E+000  -4.40910113E-006    3073.74  <-- SCF
     11  -1.92988176E+004  1.30713829E+000  -3.66569241E-006    3151.86  <-- SCF
     12  -1.92988176E+004  1.30643002E+000  -3.23963053E-006    3230.37  <-- SCF
     13  -1.92988174E+004  1.30623503E+000  -3.82373646E-006    3307.68  <-- SCF
     14  -1.92988175E+004  1.30605751E+000   3.71075161E-006    3385.74  <-- SCF
     15  -1.92988175E+004  1.30631743E+000  -3.69157040E-006    3458.57  <-- SCF
     16  -1.92988175E+004  1.30631580E+000   2.44169902E-007    3526.07  <-- SCF
     17  -1.92988174E+004  1.30650729E+000  -3.32853568E-007    3584.44  <-- SCF
     18  -1.92988174E+004  1.30655254E+000   1.70040138E-008    3639.89  <-- SCF
     19  -1.92988174E+004  1.30657457E+000   1.76104693E-010    3695.42  <-- SCF
------------------------------------------------------------------------ <-- SCF
 
Final energy, E             =  -19298.07707418     eV
Final free energy (E-TS)    =  -19298.81744831     eV
(energies not corrected for finite basis set)
 
NB est. 0K energy (E-0.5TS)      =  -19298.44726124     eV
 
Calculating total energy with cut-off of  450.000eV.
------------------------------------------------------------------------ <-- SCF
SCF loop      Energy           Fermi           Energy gain       Timer   <-- SCF
                               energy          per atom          (sec)   <-- SCF
------------------------------------------------------------------------ <-- SCF
Initial  -1.92980771E+004  0.00000000E+000                      3716.19  <-- SCF
      1  -1.92991617E+004  1.30168215E+000   4.01709797E-002    3791.68  <-- SCF
      2  -1.92991618E+004  1.30168415E+000   4.29445789E-006    3876.43  <-- SCF
      3  -1.92991645E+004  1.32076218E+000   9.94938660E-005    3958.94  <-- SCF
      4  -1.92991687E+004  1.30838181E+000   1.55233143E-004    4042.04  <-- SCF
      5  -1.92991637E+004  1.29569094E+000  -1.83086072E-004    4126.56  <-- SCF
      6  -1.92991658E+004  1.29558273E+000   7.46318946E-005    4209.16  <-- SCF
      7  -1.92991620E+004  1.30723921E+000  -1.39751005E-004    4290.33  <-- SCF
      8  -1.92991617E+004  1.30712932E+000  -1.15609224E-005    4371.43  <-- SCF
      9  -1.92991627E+004  1.30752131E+000   3.72512355E-005    4453.79  <-- SCF
     10  -1.92991618E+004  1.30855329E+000  -3.29726706E-005    4533.27  <-- SCF
     11  -1.92991619E+004  1.30669308E+000   3.03917699E-006    4611.16  <-- SCF
     12  -1.92991617E+004  1.30723418E+000  -6.22275627E-006    4692.31  <-- SCF
     13  -1.92991617E+004  1.30638507E+000  -6.91667854E-007    4773.70  <-- SCF
     14  -1.92991616E+004  1.30641518E+000  -3.57916909E-006    4851.70  <-- SCF
     15  -1.92991617E+004  1.30682335E+000   4.41536711E-006    4927.51  <-- SCF
     16  -1.92991616E+004  1.30660113E+000  -4.75006639E-006    5000.11  <-- SCF
     17  -1.92991616E+004  1.30669371E+000   1.80614096E-007    5055.38  <-- SCF
     18  -1.92991616E+004  1.30675552E+000   1.07547606E-008    5110.24  <-- SCF
     19  -1.92991616E+004  1.30675074E+000   3.16839498E-009    5165.21  <-- SCF
------------------------------------------------------------------------ <-- SCF
 
Final energy, E             =  -19298.42087373     eV
Final free energy (E-TS)    =  -19299.16157971     eV
(energies not corrected for finite basis set)
 
NB est. 0K energy (E-0.5TS)      =  -19298.79122672     eV
 
 For future reference: finite basis dEtot/dlog(Ecut) =     -31.555261eV
 Total energy corrected for finite basis set =  -19299.156374 eV
 
+---------------- MEMORY AND SCRATCH DISK ESTIMATES PER NODE -----------------+
|                                                     Memory          Disk    |
| Model and support data                              716.3 MB         0.0 MB |
| Electronic energy minimisation requirements         291.2 MB         0.0 MB |
| Geometry minimisation requirements                  416.5 MB         0.0 MB |
|                                               ----------------------------- |
| Approx. total storage required per node            1424.0 MB         0.0 MB |
|                                                                             |
| Requirements will fluctuate during execution and may exceed these estimates |
+-----------------------------------------------------------------------------+
 

 *********************************** Forces ***********************************
 *                                                                            *
 *                        Cartesian components (eV/A)                         *
 * -------------------------------------------------------------------------- *
 *                   x                    y                    z              *
 *                                                                            *
 * O         1      1.32875              1.19746              1.17340         *
 * O         2     -1.18390              1.18390              1.03935         *
 * O         3     -0.00609              0.00609              0.98844         *
 * O         4      1.19167             -1.19167              1.38313         *
 * O         5     -1.19746             -1.32875              1.17340         *
 * O         6     -0.25585              1.12463              0.40468         *
 * O         7      1.20042              0.14349              0.41512         *
 * O         8     -1.12463              0.25585              0.40468         *
 * O         9     -0.14349             -1.20042              0.41512         *
 * O        10      1.49995              1.36689             -1.52378         *
 * O        11     -1.30413              1.30413             -1.31071         *
 * O        12     -0.00922              0.00922             -1.30493         *
 * O        13      1.36055             -1.36055             -1.73054         *
 * O        14     -1.36689             -1.49995             -1.52378         *
 * Mg        1      0.02277              1.62842              2.72135         *
 * Mg        2      1.63094             -0.00130              2.65761         *
 * Mg        3     -1.62842             -0.02277              2.72135         *
 * Mg        4      0.00130             -1.63094              2.65761         *
 * Mg        5     -2.60301              2.60301             -0.05532         *
 * Ca        1      2.69893              3.45658             -0.10000         *
 * Ca        2      0.07598             -0.07598             -0.25927         *
 * Ca        3      3.23497             -3.23497             -0.09896         *
 * Ca        4     -3.45658             -2.69893             -0.10000         *
 * Ca        5      0.03110              3.21065             -2.58004         *
 * Ca        6      3.20683             -0.00616             -2.49393         *
 * Ca        7     -3.21065             -0.03110             -2.58004         *
 * Ca        8      0.00616             -3.20683             -2.49393         *
 *                                                                            *
 ******************************************************************************

 ***************** Stress Tensor *****************
 *                                               *
 *          Cartesian components (GPa)           *
 * --------------------------------------------- *
 *             x             y             z     *
 *                                               *
 *  x     14.907928     -0.384567     -0.041663  *
 *  y     -0.384567     14.907928      0.041663  *
 *  z     -0.041663      0.041663     14.862620  *
 *                                               *
 *  Pressure:  -14.8928                          *
 *                                               *
 *************************************************

 *********** Constrained Stress Tensor ***********
 *                                               *
 *          Cartesian components (GPa)           *
 * --------------------------------------------- *
 *             x             y             z     *
 *                                               *
 *  x     15.192994     -0.000000      0.000000  *
 *  y     -0.000000     15.192994     -0.000000  *
 *  z      0.000000     -0.000000     15.192994  *
 *                                               *
 *  Pressure:  -15.1930                          *
 *                                               *
 *************************************************
 BFGS: finished iteration     0 with enthalpy= -1.92991564E+004 eV
  
 +-----------+-----------------+-----------------+------------+-----+ <-- BFGS
 | Parameter |      value      |    tolerance    |    units   | OK? | <-- BFGS
 +-----------+-----------------+-----------------+------------+-----+ <-- BFGS
 |  dE/ion   |   0.000000E+000 |   2.000000E-005 |         eV | No  | <-- BFGS
 |  |F|max   |   4.576009E+000 |   5.000000E-002 |       eV/A | No  | <-- BFGS
 |  |dR|max  |   0.000000E+000 |   1.000000E-003 |          A | No  | <-- BFGS
 |   Smax    |   1.489280E+001 |   1.000000E-001 |        GPa | No  | <-- BFGS
 +-----------+-----------------+-----------------+------------+-----+ <-- BFGS
  

================================================================================
 Starting BFGS iteration          1 ...
================================================================================
  
 +------------+-------------+-------------+-----------------+ <-- min BFGS
 |    Step    |   lambda    |   F.delta   |    enthalpy     | <-- min BFGS
 +------------+-------------+-------------+-----------------+ <-- min BFGS
 |  previous  |    0.000000 |    0.093940 |   -19299.156374 | <-- min BFGS
 +------------+-------------+-------------+-----------------+ <-- min BFGS
  

--------------------------------------------------------------------------------
 BFGS: starting iteration         1 with trial guess (lambda=  1.000000)
--------------------------------------------------------------------------------

                           -------------------------------
                                      Unit Cell
                           -------------------------------
        Real Lattice(A)              Reciprocal Lattice(1/A)
   8.3166003   0.0000000  -0.0000000        0.7554993  -0.0000000   0.0000000
   0.0000000   8.3166003   0.0000000       -0.0000000   0.7554993  -0.0000000
  -0.0000000   0.0000000   8.3166003        0.0000000  -0.0000000   0.7554993

                       Lattice parameters(A)       Cell Angles
                    a =    8.316600          alpha =   90.000000
                    b =    8.316600          beta  =   90.000000
                    c =    8.316600          gamma =   90.000000

                Current cell volume =  575.224650 A**3

                           -------------------------------
                                     Cell Contents
                           -------------------------------

            xxxxxxxxxxxxxxxxxxxxxxxxxxxxxxxxxxxxxxxxxxxxxxxxxxxxxxxxxxxx
            x  Element    Atom        Fractional coordinates of atoms  x
            x            Number           u          v          w      x
            x----------------------------------------------------------x
            x  O            1         0.000627   0.000565   0.000554   x
            x  O            2         0.666108   0.000558   0.000490   x
            x  O            3         0.333330   0.333336   0.000466   x
            x  O            4         0.000562   0.666105   0.000652   x
            x  O            5         0.666102   0.666040   0.000554   x
            x  O            6         0.333213   0.000531   0.333524   x
            x  O            7         0.000566   0.333401   0.333529   x
            x  O            8         0.666136   0.333454   0.333524   x
            x  O            9         0.333266   0.666100   0.333529   x
            x  O           10         0.000708   0.000645   0.665948   x
            x  O           11         0.666051   0.000615   0.666048   x
            x  O           12         0.333329   0.333338   0.666051   x
            x  O           13         0.000642   0.666025   0.665850   x
            x  O           14         0.666022   0.665959   0.665948   x
            x  Mg           1         0.333344   0.000768   0.001284   x
            x  Mg           2         0.000769   0.333333   0.001254   x
            x  Mg           3         0.665899   0.333323   0.001284   x
            x  Mg           4         0.333334   0.665897   0.001254   x
            x  Mg           5         0.665439   0.001228   0.333307   x
            x  Ca           1         0.001273   0.001631   0.333286   x
            x  Ca           2         0.333369   0.333297   0.333211   x
            x  Ca           3         0.001526   0.665141   0.333287   x
            x  Ca           4         0.665036   0.665394   0.333286   x
            x  Ca           5         0.333348   0.001515   0.665450   x
            x  Ca           6         0.001513   0.333330   0.665490   x
            x  Ca           7         0.665152   0.333319   0.665450   x
            x  Ca           8         0.333336   0.665154   0.665490   x
            xxxxxxxxxxxxxxxxxxxxxxxxxxxxxxxxxxxxxxxxxxxxxxxxxxxxxxxxxxxx


------------------------------------------------------------------------ <-- SCF
SCF loop      Energy           Fermi           Energy gain       Timer   <-- SCF
                               energy          per atom          (sec)   <-- SCF
------------------------------------------------------------------------ <-- SCF
Initial  -1.92947946E+004  0.00000000E+000                      5415.68  <-- SCF
      1  -1.93092102E+004  2.38461638E+000   5.33909952E-001    5491.12  <-- SCF
      2  -1.93095272E+004  2.38025046E+000   1.17411098E-002    5603.57  <-- SCF
      3  -1.93206204E+004  1.03654438E+000   4.10857623E-001    5691.66  <-- SCF
      4  -1.93052299E+004  1.90563377E+000  -5.70016817E-001    5783.93  <-- SCF
      5  -1.93039102E+004  1.82737284E+000  -4.88778661E-002    5878.18  <-- SCF
      6  -1.93026926E+004  1.77130220E+000  -4.50987424E-002    5977.20  <-- SCF
      7  -1.93024226E+004  1.62233771E+000  -9.99952413E-003    6066.78  <-- SCF
      8  -1.93019752E+004  1.55172346E+000  -1.65693098E-002    6163.98  <-- SCF
      9  -1.93018807E+004  1.52821122E+000  -3.50005727E-003    6256.24  <-- SCF
     10  -1.93018236E+004  1.52614561E+000  -2.11365300E-003    6345.77  <-- SCF
     11  -1.93019137E+004  1.52269235E+000   3.33533399E-003    6436.64  <-- SCF
     12  -1.93017915E+004  1.48421770E+000  -4.52606626E-003    6524.81  <-- SCF
     13  -1.93017907E+004  1.47896711E+000  -2.72964921E-005    6617.88  <-- SCF
     14  -1.93017859E+004  1.47896246E+000  -1.80422667E-004    6704.76  <-- SCF
     15  -1.93017805E+004  1.47928293E+000  -1.99410062E-004    6788.39  <-- SCF
     16  -1.93017785E+004  1.48243918E+000  -7.37766608E-005    6874.59  <-- SCF
     17  -1.93017789E+004  1.48284563E+000   1.52732710E-005    6955.11  <-- SCF
     18  -1.93017785E+004  1.48113322E+000  -1.45512869E-005    7032.53  <-- SCF
     19  -1.93017785E+004  1.48094976E+000   1.09743919E-006    7107.03  <-- SCF
     20  -1.93017785E+004  1.48102306E+000   7.00244737E-008    7172.25  <-- SCF
     21  -1.93017785E+004  1.48090982E+000  -2.02971257E-007    7229.79  <-- SCF
     22  -1.93017785E+004  1.48092137E+000   4.56371245E-009    7286.59  <-- SCF
     23  -1.93017785E+004  1.48094696E+000  -5.44813154E-010    7343.38  <-- SCF
------------------------------------------------------------------------ <-- SCF
 
Final energy, E             =  -19301.08287037     eV
Final free energy (E-TS)    =  -19301.77854264     eV
(energies not corrected for finite basis set)
 
NB est. 0K energy (E-0.5TS)      =  -19301.43070650     eV
 

 *********************************** Forces ***********************************
 *                                                                            *
 *                        Cartesian components (eV/A)                         *
 * -------------------------------------------------------------------------- *
 *                   x                    y                    z              *
 *                                                                            *
 * O         1      1.38347              1.25280              1.19331         *
 * O         2     -1.22886              1.22886              1.10438         *
 * O         3     -0.00663              0.00663              1.01794         *
 * O         4      1.24625             -1.24625              1.39804         *
 * O         5     -1.25280             -1.38347              1.19331         *
 * O         6     -0.24603              1.17185              0.39580         *
 * O         7      1.25377              0.13774              0.40736         *
 * O         8     -1.17185              0.24603              0.39580         *
 * O         9     -0.13774             -1.25377              0.40736         *
 * O        10      1.53376              1.40075             -1.56551         *
 * O        11     -1.32277              1.32277             -1.39072         *
 * O        12     -0.00966              0.00966             -1.34781         *
 * O        13      1.39296             -1.39296             -1.76733         *
 * O        14     -1.40075             -1.53376             -1.56551         *
 * Mg        1      0.02281              1.72087              2.77179         *
 * Mg        2      1.72410             -0.00096              2.70533         *
 * Mg        3     -1.72087             -0.02281              2.77179         *
 * Mg        4      0.00096             -1.72410              2.70533         *
 * Mg        5     -2.68291              2.68291             -0.05740         *
 * Ca        1      2.72367              3.43367             -0.10324         *
 * Ca        2      0.08174             -0.08174             -0.28231         *
 * Ca        3      3.21768             -3.21768             -0.10312         *
 * Ca        4     -3.43367             -2.72367             -0.10324         *
 * Ca        5      0.03045              3.17613             -2.59112         *
 * Ca        6      3.17290             -0.00615             -2.49953         *
 * Ca        7     -3.17613             -0.03045             -2.59112         *
 * Ca        8      0.00615             -3.17290             -2.49953         *
 *                                                                            *
 ******************************************************************************

 ***************** Stress Tensor *****************
 *                                               *
 *          Cartesian components (GPa)           *
 * --------------------------------------------- *
 *             x             y             z     *
 *                                               *
 *  x     15.173276     -0.394699     -0.046045  *
 *  y     -0.394699     15.173276      0.046045  *
 *  z     -0.046045      0.046045     15.092922  *
 *                                               *
 *  Pressure:  -15.1465                          *
 *                                               *
 *************************************************

 *********** Constrained Stress Tensor ***********
 *                                               *
 *          Cartesian components (GPa)           *
 * --------------------------------------------- *
 *             x             y             z     *
 *                                               *
 *  x     15.453923     -0.000000     -0.000000  *
 *  y     -0.000000     15.453923      0.000000  *
 *  z     -0.000000      0.000000     15.453923  *
 *                                               *
 *  Pressure:  -15.4539                          *
 *                                               *
 *************************************************
  
 +------------+-------------+-------------+-----------------+ <-- min BFGS
 |    Step    |   lambda    |   F.delta   |    enthalpy     | <-- min BFGS
 +------------+-------------+-------------+-----------------+ <-- min BFGS
 |  previous  |    0.000000 |    0.093940 |   -19299.156374 | <-- min BFGS
 | trial step |    1.000000 |    0.093802 |   -19301.761325 | <-- min BFGS
 +------------+-------------+-------------+-----------------+ <-- min BFGS
  
 BFGS: finished iteration     1 with enthalpy= -1.93017613E+004 eV
  
 +-----------+-----------------+-----------------+------------+-----+ <-- BFGS
 | Parameter |      value      |    tolerance    |    units   | OK? | <-- BFGS
 +-----------+-----------------+-----------------+------------+-----+ <-- BFGS
 |  dE/ion   |   9.647964E-002 |   2.000000E-005 |         eV | No  | <-- BFGS
 |  |F|max   |   4.551650E+000 |   5.000000E-002 |       eV/A | No  | <-- BFGS
 |  |dR|max  |   1.795200E-002 |   1.000000E-003 |          A | No  | <-- BFGS
 |   Smax    |   1.514647E+001 |   1.000000E-001 |        GPa | No  | <-- BFGS
 +-----------+-----------------+-----------------+------------+-----+ <-- BFGS
  

================================================================================
 Starting BFGS iteration          2 ...
================================================================================
  
 +------------+-------------+-------------+-----------------+ <-- min BFGS
 |    Step    |   lambda    |   F.delta   |    enthalpy     | <-- min BFGS
 +------------+-------------+-------------+-----------------+ <-- min BFGS
 |  previous  |    0.000000 |    0.093679 |   -19301.761325 | <-- min BFGS
 +------------+-------------+-------------+-----------------+ <-- min BFGS
  

--------------------------------------------------------------------------------
 BFGS: starting iteration         2 with trial guess (lambda=  1.000000)
--------------------------------------------------------------------------------

                           -------------------------------
                                      Unit Cell
                           -------------------------------
        Real Lattice(A)              Reciprocal Lattice(1/A)
   8.2334560   0.0000000  -0.0000000        0.7631285  -0.0000000   0.0000000
   0.0000000   8.2334560   0.0000000       -0.0000000   0.7631285  -0.0000000
  -0.0000000   0.0000000   8.2334560        0.0000000  -0.0000000   0.7631285

                       Lattice parameters(A)       Cell Angles
                    a =    8.233456          alpha =   90.000000
                    b =    8.233456          beta  =   90.000000
                    c =    8.233456          gamma =   90.000000

                Current cell volume =  558.144314 A**3

                           -------------------------------
                                     Cell Contents
                           -------------------------------

            xxxxxxxxxxxxxxxxxxxxxxxxxxxxxxxxxxxxxxxxxxxxxxxxxxxxxxxxxxxx
            x  Element    Atom        Fractional coordinates of atoms  x
            x            Number           u          v          w      x
            x----------------------------------------------------------x
            x  O            1         0.001273   0.001150   0.001111   x
            x  O            2         0.665534   0.001132   0.001006   x
            x  O            3         0.333327   0.333339   0.000942   x
            x  O            4         0.001144   0.665523   0.001305   x
            x  O            5         0.665517   0.665394   0.001111   x
            x  O            6         0.333098   0.001078   0.333709   x
            x  O            7         0.001152   0.333465   0.333719   x
            x  O            8         0.665589   0.333569   0.333709   x
            x  O            9         0.333201   0.665515   0.333719   x
            x  O           10         0.001424   0.001299   0.665217   x
            x  O           11         0.665434   0.001233   0.665399   x
            x  O           12         0.333324   0.333342   0.665422   x
            x  O           13         0.001292   0.665374   0.665025   x
            x  O           14         0.665368   0.665243   0.665217   x
            x  Mg           1         0.333355   0.001572   0.002578   x
            x  Mg           2         0.001575   0.333332   0.002517   x
            x  Mg           3         0.665095   0.333312   0.002578   x
            x  Mg           4         0.333334   0.665092   0.002517   x
            x  Mg           5         0.664186   0.002481   0.333280   x
            x  Ca           1         0.002545   0.003234   0.333238   x
            x  Ca           2         0.333407   0.333259   0.333079   x
            x  Ca           3         0.003029   0.663638   0.333238   x
            x  Ca           4         0.663433   0.664121   0.333238   x
            x  Ca           5         0.333362   0.002998   0.664239   x
            x  Ca           6         0.002995   0.333328   0.664323   x
            x  Ca           7         0.663669   0.333304   0.664239   x
            x  Ca           8         0.333339   0.663672   0.664323   x
            xxxxxxxxxxxxxxxxxxxxxxxxxxxxxxxxxxxxxxxxxxxxxxxxxxxxxxxxxxxx


------------------------------------------------------------------------ <-- SCF
SCF loop      Energy           Fermi           Energy gain       Timer   <-- SCF
                               energy          per atom          (sec)   <-- SCF
------------------------------------------------------------------------ <-- SCF
Initial  -1.92974763E+004  0.00000000E+000                      7588.82  <-- SCF
      1  -1.93115860E+004  2.56677745E+000   5.22581839E-001    7663.36  <-- SCF
      2  -1.93118956E+004  2.56249610E+000   1.14648928E-002    7775.49  <-- SCF
      3  -1.93216745E+004  1.19993995E+000   3.62181003E-001    7862.30  <-- SCF
      4  -1.93075129E+004  2.12099472E+000  -5.24500757E-001    7952.82  <-- SCF
      5  -1.93060886E+004  1.97942244E+000  -5.27542454E-002    8043.54  <-- SCF
      6  -1.93051883E+004  1.94258211E+000  -3.33414375E-002    8135.31  <-- SCF
      7  -1.93049469E+004  1.80263539E+000  -8.94201255E-003    8226.22  <-- SCF
      8  -1.93045095E+004  1.72947932E+000  -1.62021169E-002    8322.01  <-- SCF
      9  -1.93044375E+004  1.70840709E+000  -2.66450840E-003    8413.81  <-- SCF
     10  -1.93043927E+004  1.70560855E+000  -1.66163049E-003    8501.15  <-- SCF
     11  -1.93044670E+004  1.69834490E+000   2.75486628E-003    8590.07  <-- SCF
     12  -1.93043566E+004  1.66454081E+000  -4.08861599E-003    8673.81  <-- SCF
     13  -1.93043674E+004  1.65994834E+000   3.98037091E-004    8765.93  <-- SCF
     14  -1.93043564E+004  1.66012757E+000  -4.06741581E-004    8852.10  <-- SCF
     15  -1.93043539E+004  1.66050488E+000  -9.33850256E-005    8932.48  <-- SCF
     16  -1.93043526E+004  1.66389750E+000  -4.82695093E-005    9017.74  <-- SCF
     17  -1.93043526E+004  1.66372941E+000  -2.64957474E-007    9095.26  <-- SCF
     18  -1.93043524E+004  1.66248415E+000  -7.00938844E-006    9170.49  <-- SCF
     19  -1.93043524E+004  1.66237550E+000   4.72082488E-007    9235.31  <-- SCF
     20  -1.93043524E+004  1.66232874E+000  -1.64177238E-009    9293.68  <-- SCF
     21  -1.93043524E+004  1.66221931E+000  -3.44348266E-008    9350.15  <-- SCF
------------------------------------------------------------------------ <-- SCF
 
Final energy, E             =  -19303.70170491     eV
Final free energy (E-TS)    =  -19304.35239579     eV
(energies not corrected for finite basis set)
 
NB est. 0K energy (E-0.5TS)      =  -19304.02705035     eV
 

 *********************************** Forces ***********************************
 *                                                                            *
 *                        Cartesian components (eV/A)                         *
 * -------------------------------------------------------------------------- *
 *                   x                    y                    z              *
 *                                                                            *
 * O         1      1.43867              1.30974              1.21308         *
 * O         2     -1.27305              1.27305              1.17240         *
 * O         3     -0.00726              0.00726              1.03165         *
 * O         4      1.30266             -1.30266              1.41157         *
 * O         5     -1.30974             -1.43867              1.21308         *
 * O         6     -0.23401              1.20728              0.38400         *
 * O         7      1.29537              0.13093              0.39656         *
 * O         8     -1.20728              0.23401              0.38400         *
 * O         9     -0.13093             -1.29537              0.39656         *
 * O        10      1.56695              1.43425             -1.60727         *
 * O        11     -1.34089              1.34089             -1.47438         *
 * O        12     -0.01009              0.01009             -1.37820         *
 * O        13      1.42563             -1.42563             -1.80309         *
 * O        14     -1.43425             -1.56695             -1.60727         *
 * Mg        1      0.02307              1.81477              2.82123         *
 * Mg        2      1.81875             -0.00048              2.75155         *
 * Mg        3     -1.81477             -0.02307              2.82123         *
 * Mg        4      0.00048             -1.81875              2.75155         *
 * Mg        5     -2.76297              2.76297             -0.06003         *
 * Ca        1      2.74195              3.40574             -0.10745         *
 * Ca        2      0.08787             -0.08787             -0.30724         *
 * Ca        3      3.19591             -3.19591             -0.10807         *
 * Ca        4     -3.40574             -2.74195             -0.10745         *
 * Ca        5      0.03003              3.13685             -2.59584         *
 * Ca        6      3.13444             -0.00604             -2.49816         *
 * Ca        7     -3.13685             -0.03003             -2.59584         *
 * Ca        8      0.00604             -3.13444             -2.49816         *
 *                                                                            *
 ******************************************************************************

 ***************** Stress Tensor *****************
 *                                               *
 *          Cartesian components (GPa)           *
 * --------------------------------------------- *
 *             x             y             z     *
 *                                               *
 *  x     15.429129     -0.404262     -0.051031  *
 *  y     -0.404262     15.429129      0.051031  *
 *  z     -0.051031      0.051031     15.318911  *
 *                                               *
 *  Pressure:  -15.3924                          *
 *                                               *
 *************************************************

 *********** Constrained Stress Tensor ***********
 *                                               *
 *          Cartesian components (GPa)           *
 * --------------------------------------------- *
 *             x             y             z     *
 *                                               *
 *  x     15.706741     -0.000000      0.000000  *
 *  y     -0.000000     15.706741     -0.000000  *
 *  z      0.000000     -0.000000     15.706741  *
 *                                               *
 *  Pressure:  -15.7067                          *
 *                                               *
 *************************************************
  
 +------------+-------------+-------------+-----------------+ <-- min BFGS
 |    Step    |   lambda    |   F.delta   |    enthalpy     | <-- min BFGS
 +------------+-------------+-------------+-----------------+ <-- min BFGS
 |  previous  |    0.000000 |    0.093679 |   -19301.761325 | <-- min BFGS
 | trial step |    1.000000 |    0.093449 |   -19304.365159 | <-- min BFGS
 +------------+-------------+-------------+-----------------+ <-- min BFGS
  
 BFGS: finished iteration     2 with enthalpy= -1.93043652E+004 eV
  
 +-----------+-----------------+-----------------+------------+-----+ <-- BFGS
 | Parameter |      value      |    tolerance    |    units   | OK? | <-- BFGS
 +-----------+-----------------+-----------------+------------+-----+ <-- BFGS
 |  dE/ion   |   9.643830E-002 |   2.000000E-005 |         eV | No  | <-- BFGS
 |  |F|max   |   4.520994E+000 |   5.000000E-002 |       eV/A | No  | <-- BFGS
 |  |dR|max  |   1.750240E-002 |   1.000000E-003 |          A | No  | <-- BFGS
 |   Smax    |   1.539237E+001 |   1.000000E-001 |        GPa | No  | <-- BFGS
 +-----------+-----------------+-----------------+------------+-----+ <-- BFGS
  

================================================================================
 Starting BFGS iteration          3 ...
================================================================================
  
 +------------+-------------+-------------+-----------------+ <-- min BFGS
 |    Step    |   lambda    |   F.delta   |    enthalpy     | <-- min BFGS
 +------------+-------------+-------------+-----------------+ <-- min BFGS
 |  previous  |    0.000000 |    0.093234 |   -19304.365159 | <-- min BFGS
 +------------+-------------+-------------+-----------------+ <-- min BFGS
  

--------------------------------------------------------------------------------
 BFGS: starting iteration         3 with trial guess (lambda=  1.000000)
--------------------------------------------------------------------------------

                           -------------------------------
                                      Unit Cell
                           -------------------------------
        Real Lattice(A)              Reciprocal Lattice(1/A)
   8.1506428   0.0000000  -0.0000000        0.7708822  -0.0000000   0.0000000
   0.0000000   8.1506428   0.0000000       -0.0000000   0.7708822  -0.0000000
  -0.0000000   0.0000000   8.1506428        0.0000000  -0.0000000   0.7708822

                       Lattice parameters(A)       Cell Angles
                    a =    8.150643          alpha =   90.000000
                    b =    8.150643          beta  =   90.000000
                    c =    8.150643          gamma =   90.000000

                Current cell volume =  541.471483 A**3

                           -------------------------------
                                     Cell Contents
                           -------------------------------

            xxxxxxxxxxxxxxxxxxxxxxxxxxxxxxxxxxxxxxxxxxxxxxxxxxxxxxxxxxxx
            x  Element    Atom        Fractional coordinates of atoms  x
            x            Number           u          v          w      x
            x----------------------------------------------------------x
            x  O            1         0.001938   0.001756   0.001672   x
            x  O            2         0.664946   0.001721   0.001548   x
            x  O            3         0.333324   0.333343   0.001419   x
            x  O            4         0.001746   0.664920   0.001958   x
            x  O            5         0.664911   0.664729   0.001672   x
            x  O            6         0.332990   0.001636   0.333887   x
            x  O            7         0.001751   0.333526   0.333903   x
            x  O            8         0.665031   0.333677   0.333887   x
            x  O            9         0.333141   0.664916   0.333903   x
            x  O           10         0.002148   0.001962   0.664474   x
            x  O           11         0.664814   0.001853   0.664717   x
            x  O           12         0.333320   0.333347   0.664784   x
            x  O           13         0.001952   0.664715   0.664191   x
            x  O           14         0.664705   0.664518   0.664474   x
            x  Mg           1         0.333365   0.002411   0.003883   x
            x  Mg           2         0.002415   0.333332   0.003789   x
            x  Mg           3         0.664256   0.333301   0.003883   x
            x  Mg           4         0.333335   0.664251   0.003789   x
            x  Mg           5         0.662908   0.003758   0.333253   x
            x  Ca           1         0.003813   0.004809   0.333188   x
            x  Ca           2         0.333448   0.333219   0.332937   x
            x  Ca           3         0.004506   0.662160   0.333189   x
            x  Ca           4         0.661858   0.662854   0.333188   x
            x  Ca           5         0.333376   0.004448   0.663039   x
            x  Ca           6         0.004444   0.333325   0.663168   x
            x  Ca           7         0.662218   0.333291   0.663039   x
            x  Ca           8         0.333342   0.662223   0.663168   x
            xxxxxxxxxxxxxxxxxxxxxxxxxxxxxxxxxxxxxxxxxxxxxxxxxxxxxxxxxxxx


------------------------------------------------------------------------ <-- SCF
SCF loop      Energy           Fermi           Energy gain       Timer   <-- SCF
                               energy          per atom          (sec)   <-- SCF
------------------------------------------------------------------------ <-- SCF
Initial  -1.93001708E+004  0.00000000E+000                      9593.56  <-- SCF
      1  -1.93139927E+004  2.76152730E+000   5.11919793E-001    9665.99  <-- SCF
      2  -1.93142941E+004  2.75728094E+000   1.11653851E-002    9772.83  <-- SCF
      3  -1.93231280E+004  1.35924544E+000   3.27179504E-001    9857.49  <-- SCF
      4  -1.93097488E+004  2.33238543E+000  -4.95526016E-001    9945.37  <-- SCF
      5  -1.93082664E+004  2.13812086E+000  -5.49036282E-002   10035.08  <-- SCF
      6  -1.93077263E+004  2.12035454E+000  -2.00020084E-002   10127.05  <-- SCF
      7  -1.93074079E+004  1.97694739E+000  -1.17946800E-002   10214.53  <-- SCF
      8  -1.93070523E+004  1.90905664E+000  -1.31689456E-002   10304.62  <-- SCF
      9  -1.93070028E+004  1.89155461E+000  -1.83220026E-003   10393.74  <-- SCF
     10  -1.93069726E+004  1.88987092E+000  -1.11899687E-003   10479.20  <-- SCF
     11  -1.93070118E+004  1.87517138E+000   1.45144477E-003   10565.98  <-- SCF
     12  -1.93069391E+004  1.85437024E+000  -2.69338253E-003   10648.51  <-- SCF
     13  -1.93069412E+004  1.85003638E+000   7.90945153E-005   10737.73  <-- SCF
     14  -1.93069376E+004  1.84885890E+000  -1.33685969E-004   10818.67  <-- SCF
     15  -1.93069360E+004  1.85190475E+000  -5.90869279E-005   10902.82  <-- SCF
     16  -1.93069363E+004  1.85230566E+000   1.07417860E-005   10979.30  <-- SCF
     17  -1.93069360E+004  1.85214056E+000  -1.00796301E-005   11056.37  <-- SCF
     18  -1.93069359E+004  1.85135836E+000  -4.68804764E-006   11129.84  <-- SCF
     19  -1.93069359E+004  1.85128609E+000   2.12661370E-007   11192.48  <-- SCF
     20  -1.93069359E+004  1.85134297E+000  -2.67311571E-007   11250.99  <-- SCF
     21  -1.93069359E+004  1.85124394E+000  -2.00580610E-008   11308.14  <-- SCF
     22  -1.93069359E+004  1.85129480E+000  -1.00377384E-008   11365.14  <-- SCF
------------------------------------------------------------------------ <-- SCF
 
Final energy, E             =  -19306.32924362     eV
Final free energy (E-TS)    =  -19306.93591138     eV
(energies not corrected for finite basis set)
 
NB est. 0K energy (E-0.5TS)      =  -19306.63257750     eV
 

 *********************************** Forces ***********************************
 *                                                                            *
 *                        Cartesian components (eV/A)                         *
 * -------------------------------------------------------------------------- *
 *                   x                    y                    z              *
 *                                                                            *
 * O         1      1.49483              1.36730              1.22850         *
 * O         2     -1.31875              1.31875              1.24396         *
 * O         3     -0.00756              0.00756              1.06559         *
 * O         4      1.35965             -1.35965              1.42036         *
 * O         5     -1.36730             -1.49483              1.22850         *
 * O         6     -0.21986              1.25650              0.36904         *
 * O         7      1.34797              0.12311              0.38233         *
 * O         8     -1.25650              0.21986              0.36904         *
 * O         9     -0.12311             -1.34797              0.38233         *
 * O        10      1.59871              1.46815             -1.64667         *
 * O        11     -1.35614              1.35614             -1.56117         *
 * O        12     -0.01024              0.01024             -1.42416         *
 * O        13      1.45936             -1.45936             -1.83687         *
 * O        14     -1.46815             -1.59871             -1.64667         *
 * Mg        1      0.02354              1.90711              2.86652         *
 * Mg        2      1.91215             -0.00019              2.79356         *
 * Mg        3     -1.90711             -0.02354              2.86652         *
 * Mg        4      0.00019             -1.91215              2.79356         *
 * Mg        5     -2.83938              2.83938             -0.06331         *
 * Ca        1      2.75220              3.37185             -0.11155         *
 * Ca        2      0.09446             -0.09446             -0.33395         *
 * Ca        3      3.16870             -3.16870             -0.11329         *
 * Ca        4     -3.37185             -2.75220             -0.11155         *
 * Ca        5      0.02955              3.09090             -2.59255         *
 * Ca        6      3.08951             -0.00602             -2.48774         *
 * Ca        7     -3.09090             -0.02955             -2.59255         *
 * Ca        8      0.00602             -3.08951             -2.48774         *
 *                                                                            *
 ******************************************************************************

 ***************** Stress Tensor *****************
 *                                               *
 *          Cartesian components (GPa)           *
 * --------------------------------------------- *
 *             x             y             z     *
 *                                               *
 *  x     15.583966     -0.412885     -0.056457  *
 *  y     -0.412885     15.583966      0.056457  *
 *  z     -0.056457      0.056457     15.448473  *
 *                                               *
 *  Pressure:  -15.5388                          *
 *                                               *
 *************************************************

 *********** Constrained Stress Tensor ***********
 *                                               *
 *          Cartesian components (GPa)           *
 * --------------------------------------------- *
 *             x             y             z     *
 *                                               *
 *  x     15.855938      0.000000     -0.000000  *
 *  y      0.000000     15.855938      0.000000  *
 *  z     -0.000000      0.000000     15.855938  *
 *                                               *
 *  Pressure:  -15.8559                          *
 *                                               *
 *************************************************
  
 +------------+-------------+-------------+-----------------+ <-- min BFGS
 |    Step    |   lambda    |   F.delta   |    enthalpy     | <-- min BFGS
 +------------+-------------+-------------+-----------------+ <-- min BFGS
 |  previous  |    0.000000 |    0.093234 |   -19304.365159 | <-- min BFGS
 | trial step |    1.000000 |    0.092576 |   -19306.944133 | <-- min BFGS
 +------------+-------------+-------------+-----------------+ <-- min BFGS
  
 BFGS: finished iteration     3 with enthalpy= -1.93069441E+004 eV
  
 +-----------+-----------------+-----------------+------------+-----+ <-- BFGS
 | Parameter |      value      |    tolerance    |    units   | OK? | <-- BFGS
 +-----------+-----------------+-----------------+------------+-----+ <-- BFGS
 |  dE/ion   |   9.551757E-002 |   2.000000E-005 |         eV | No  | <-- BFGS
 |  |F|max   |   4.482653E+000 |   5.000000E-002 |       eV/A | No  | <-- BFGS
 |  |dR|max  |   1.703762E-002 |   1.000000E-003 |          A | No  | <-- BFGS
 |   Smax    |   1.553878E+001 |   1.000000E-001 |        GPa | No  | <-- BFGS
 +-----------+-----------------+-----------------+------------+-----+ <-- BFGS
  

================================================================================
 Starting BFGS iteration          4 ...
================================================================================
  
 +------------+-------------+-------------+-----------------+ <-- min BFGS
 |    Step    |   lambda    |   F.delta   |    enthalpy     | <-- min BFGS
 +------------+-------------+-------------+-----------------+ <-- min BFGS
 |  previous  |    0.000000 |    0.091939 |   -19306.944133 | <-- min BFGS
 +------------+-------------+-------------+-----------------+ <-- min BFGS
  

--------------------------------------------------------------------------------
 BFGS: starting iteration         4 with trial guess (lambda=  1.000000)
--------------------------------------------------------------------------------

                           -------------------------------
                                      Unit Cell
                           -------------------------------
        Real Lattice(A)              Reciprocal Lattice(1/A)
   8.0687153   0.0000000  -0.0000000        0.7787095  -0.0000000   0.0000000
   0.0000000   8.0687153   0.0000000       -0.0000000   0.7787095  -0.0000000
  -0.0000000   0.0000000   8.0687153        0.0000000  -0.0000000   0.7787095

                       Lattice parameters(A)       Cell Angles
                    a =    8.068715          alpha =   90.000000
                    b =    8.068715          beta  =   90.000000
                    c =    8.068715          gamma =   90.000000

                Current cell volume =  525.306976 A**3

                           -------------------------------
                                     Cell Contents
                           -------------------------------

            xxxxxxxxxxxxxxxxxxxxxxxxxxxxxxxxxxxxxxxxxxxxxxxxxxxxxxxxxxxx
            x  Element    Atom        Fractional coordinates of atoms  x
            x            Number           u          v          w      x
            x----------------------------------------------------------x
            x  O            1         0.002622   0.002381   0.002234   x
            x  O            2         0.664342   0.002325   0.002118   x
            x  O            3         0.333321   0.333346   0.001906   x
            x  O            4         0.002369   0.664298   0.002608   x
            x  O            5         0.664285   0.664044   0.002234   x
            x  O            6         0.332889   0.002211   0.334056   x
            x  O            7         0.002368   0.333582   0.334078   x
            x  O            8         0.664456   0.333778   0.334056   x
            x  O            9         0.333084   0.664299   0.334078   x
            x  O           10         0.002880   0.002634   0.663720   x
            x  O           11         0.664193   0.002474   0.664003   x
            x  O           12         0.333315   0.333352   0.664133   x
            x  O           13         0.002619   0.664047   0.663351   x
            x  O           14         0.664033   0.663787   0.663720   x
            x  Mg           1         0.333376   0.003284   0.005195   x
            x  Mg           2         0.003291   0.333332   0.005068   x
            x  Mg           3         0.663383   0.333290   0.005195   x
            x  Mg           4         0.333335   0.663376   0.005068   x
            x  Mg           5         0.661609   0.005058   0.333224   x
            x  Ca           1         0.005073   0.006352   0.333137   x
            x  Ca           2         0.333491   0.333175   0.332784   x
            x  Ca           3         0.005957   0.660710   0.333137   x
            x  Ca           4         0.660314   0.661594   0.333137   x
            x  Ca           5         0.333390   0.005863   0.661853   x
            x  Ca           6         0.005858   0.333322   0.662029   x
            x  Ca           7         0.660804   0.333277   0.661853   x
            x  Ca           8         0.333345   0.660809   0.662029   x
            xxxxxxxxxxxxxxxxxxxxxxxxxxxxxxxxxxxxxxxxxxxxxxxxxxxxxxxxxxxx


------------------------------------------------------------------------ <-- SCF
SCF loop      Energy           Fermi           Energy gain       Timer   <-- SCF
                               energy          per atom          (sec)   <-- SCF
------------------------------------------------------------------------ <-- SCF
Initial  -1.93028659E+004  0.00000000E+000                     11605.66  <-- SCF
      1  -1.93162646E+004  2.94948383E+000   4.96249787E-001   11676.57  <-- SCF
      2  -1.93165540E+004  2.94536935E+000   1.07170523E-002   11781.87  <-- SCF
      3  -1.93241937E+004  1.50325883E+000   2.82952416E-001   11867.90  <-- SCF
      4  -1.93120380E+004  2.55399688E+000  -4.50210514E-001   11956.61  <-- SCF
      5  -1.93108682E+004  2.33267627E+000  -4.33259813E-002   12044.42  <-- SCF
      6  -1.93101101E+004  2.29705075E+000  -2.80788434E-002   12131.72  <-- SCF
      7  -1.93099614E+004  2.18735176E+000  -5.50748573E-003   12217.60  <-- SCF
      8  -1.93095944E+004  2.11080102E+000  -1.35902105E-002   12307.13  <-- SCF
      9  -1.93095300E+004  2.08682434E+000  -2.38487377E-003   12394.26  <-- SCF
     10  -1.93095104E+004  2.08261805E+000  -7.29507032E-004   12481.42  <-- SCF
     11  -1.93095357E+004  2.06829322E+000   9.37929765E-004   12568.66  <-- SCF
     12  -1.93094756E+004  2.05016248E+000  -2.22581260E-003   12649.01  <-- SCF
     13  -1.93094792E+004  2.04594176E+000   1.34328070E-004   12733.66  <-- SCF
     14  -1.93094744E+004  2.04412096E+000  -1.77719686E-004   12814.13  <-- SCF
     15  -1.93094730E+004  2.04475669E+000  -5.37238455E-005   12890.17  <-- SCF
     16  -1.93094724E+004  2.04747620E+000  -1.95839165E-005   12970.20  <-- SCF
     17  -1.93094723E+004  2.04690785E+000  -3.74372306E-006   13044.35  <-- SCF
     18  -1.93094723E+004  2.04625767E+000  -1.50414387E-006   13118.50  <-- SCF
     19  -1.93094723E+004  2.04630713E+000  -4.16413698E-008   13175.33  <-- SCF
     20  -1.93094723E+004  2.04622029E+000   8.57149780E-009   13229.88  <-- SCF
------------------------------------------------------------------------ <-- SCF
 
Final energy, E             =  -19308.90605634     eV
Final free energy (E-TS)    =  -19309.47228602     eV
(energies not corrected for finite basis set)
 
NB est. 0K energy (E-0.5TS)      =  -19309.18917118     eV
 

 *********************************** Forces ***********************************
 *                                                                            *
 *                        Cartesian components (eV/A)                         *
 * -------------------------------------------------------------------------- *
 *                   x                    y                    z              *
 *                                                                            *
 * O         1      1.55405              1.42953              1.23975         *
 * O         2     -1.36570              1.36570              1.31890         *
 * O         3     -0.00797              0.00797              1.08826         *
 * O         4      1.42176             -1.42176              1.42421         *
 * O         5     -1.42953             -1.55405              1.23975         *
[...]
 * O        13      1.35964             -1.35964             -1.72985         *
 * O        14     -1.36668             -1.50016             -1.52368         *
 * Mg        1      0.02275              1.62836              2.72136         *
 * Mg        2      1.63088             -0.00127              2.65758         *
 * Mg        3     -1.62836             -0.02275              2.72136         *
 * Mg        4      0.00127             -1.63088              2.65758         *
 * Mg        5     -2.60296              2.60296             -0.05534         *
 * Ca        1      2.69893              3.45663             -0.10004         *
 * Ca        2      0.07589             -0.07589             -0.25928         *
 * Ca        3      3.23506             -3.23506             -0.09906         *
 * Ca        4     -3.45663             -2.69893             -0.10004         *
 * Ca        5      0.03127              3.21056             -2.57997         *
 * Ca        6      3.20673             -0.00610             -2.49395         *
 * Ca        7     -3.21056             -0.03127             -2.57997         *
 * Ca        8      0.00610             -3.20673             -2.49395         *
 *                                                                            *
 ******************************************************************************

 ***************** Stress Tensor *****************
 *                                               *
 *          Cartesian components (GPa)           *
 * --------------------------------------------- *
 *             x             y             z     *
 *                                               *
 *  x     14.906293     -0.384527     -0.041620  *
 *  y     -0.384527     14.906293      0.041620  *
 *  z     -0.041620      0.041620     14.861486  *
 *                                               *
 *  Pressure:  -14.8914                          *
 *                                               *
 *************************************************

 *********** Constrained Stress Tensor ***********
 *                                               *
 *          Cartesian components (GPa)           *
 * --------------------------------------------- *
 *             x             y             z     *
 *                                               *
 *  x     15.191466     -0.000000      0.000000  *
 *  y     -0.000000     15.191466     -0.000000  *
 *  z      0.000000     -0.000000     15.191466  *
 *                                               *
 *  Pressure:  -15.1915                          *
 *                                               *
 *************************************************
 BFGS: finished iteration     0 with enthalpy= -1.92991564E+004 eV
  
 +-----------+-----------------+-----------------+------------+-----+ <-- BFGS
 | Parameter |      value      |    tolerance    |    units   | OK? | <-- BFGS
 +-----------+-----------------+-----------------+------------+-----+ <-- BFGS
 |  dE/ion   |   0.000000E+000 |   2.000000E-005 |         eV | No  | <-- BFGS
 |  |F|max   |   4.576135E+000 |   5.000000E-002 |       eV/A | No  | <-- BFGS
 |  |dR|max  |   0.000000E+000 |   1.000000E-003 |          A | No  | <-- BFGS
 |   Smax    |   1.489133E+001 |   1.000000E-001 |        GPa | No  | <-- BFGS
 +-----------+-----------------+-----------------+------------+-----+ <-- BFGS
  

================================================================================
 Starting BFGS iteration          1 ...
================================================================================
  
 +------------+-------------+-------------+-----------------+ <-- min BFGS
 |    Step    |   lambda    |   F.delta   |    enthalpy     | <-- min BFGS
 +------------+-------------+-------------+-----------------+ <-- min BFGS
 |  previous  |    0.000000 |    0.093928 |   -19299.156374 | <-- min BFGS
 +------------+-------------+-------------+-----------------+ <-- min BFGS
  

--------------------------------------------------------------------------------
 BFGS: starting iteration         1 with trial guess (lambda=  1.000000)
--------------------------------------------------------------------------------

                           -------------------------------
                                      Unit Cell
                           -------------------------------
        Real Lattice(A)              Reciprocal Lattice(1/A)
   8.3166085   0.0000000  -0.0000000        0.7554985  -0.0000000   0.0000000
   0.0000000   8.3166085   0.0000000       -0.0000000   0.7554985  -0.0000000
  -0.0000000   0.0000000   8.3166085        0.0000000  -0.0000000   0.7554985

                       Lattice parameters(A)       Cell Angles
                    a =    8.316609          alpha =   90.000000
                    b =    8.316609          beta  =   90.000000
                    c =    8.316609          gamma =   90.000000

                Current cell volume =  575.226357 A**3

                           -------------------------------
                                     Cell Contents
                           -------------------------------

            xxxxxxxxxxxxxxxxxxxxxxxxxxxxxxxxxxxxxxxxxxxxxxxxxxxxxxxxxxxx
            x  Element    Atom        Fractional coordinates of atoms  x
            x            Number           u          v          w      x
            x----------------------------------------------------------x
            x  O            1         0.000627   0.000565   0.000553   x
            x  O            2         0.666108   0.000558   0.000490   x
            x  O            3         0.333330   0.333336   0.000466   x
            x  O            4         0.000562   0.666105   0.000652   x
            x  O            5         0.666102   0.666040   0.000553   x
            x  O            6         0.333213   0.000531   0.333524   x
            x  O            7         0.000567   0.333401   0.333529   x
            x  O            8         0.666136   0.333454   0.333524   x
            x  O            9         0.333266   0.666100   0.333529   x
            x  O           10         0.000708   0.000645   0.665948   x
            x  O           11         0.666051   0.000615   0.666048   x
            x  O           12         0.333329   0.333338   0.666051   x
            x  O           13         0.000641   0.666025   0.665851   x
            x  O           14         0.666022   0.665959   0.665948   x
            x  Mg           1         0.333344   0.000768   0.001284   x
            x  Mg           2         0.000769   0.333333   0.001254   x
            x  Mg           3         0.665899   0.333323   0.001284   x
            x  Mg           4         0.333334   0.665897   0.001254   x
            x  Mg           5         0.665439   0.001228   0.333307   x
            x  Ca           1         0.001273   0.001631   0.333286   x
            x  Ca           2         0.333369   0.333298   0.333211   x
            x  Ca           3         0.001526   0.665141   0.333287   x
            x  Ca           4         0.665036   0.665394   0.333286   x
            x  Ca           5         0.333348   0.001514   0.665450   x
            x  Ca           6         0.001513   0.333330   0.665490   x
            x  Ca           7         0.665152   0.333319   0.665450   x
            x  Ca           8         0.333336   0.665154   0.665490   x
            xxxxxxxxxxxxxxxxxxxxxxxxxxxxxxxxxxxxxxxxxxxxxxxxxxxxxxxxxxxx


------------------------------------------------------------------------ <-- SCF
SCF loop      Energy           Fermi           Energy gain       Timer   <-- SCF
                               energy          per atom          (sec)   <-- SCF
------------------------------------------------------------------------ <-- SCF
Initial  -1.92947950E+004  0.00000000E+000                     33014.56  <-- SCF
      1  -1.93092087E+004  2.38439742E+000   5.33840476E-001   33117.69  <-- SCF
      2  -1.93095256E+004  2.38003326E+000   1.17390406E-002   33255.84  <-- SCF
      3  -1.93206148E+004  1.03616761E+000   4.10711142E-001   33367.85  <-- SCF
      4  -1.93052336E+004  1.90587653E+000  -5.69677318E-001   33490.52  <-- SCF
      5  -1.93039265E+004  1.82647894E+000  -4.84100799E-002   33650.84  <-- SCF
      6  -1.93026958E+004  1.77107937E+000  -4.55821687E-002   33779.55  <-- SCF
      7  -1.93025037E+004  1.63455753E+000  -7.11452284E-003   33897.00  <-- SCF
      8  -1.93019988E+004  1.55695586E+000  -1.87003720E-002   34026.33  <-- SCF
      9  -1.93018830E+004  1.52886262E+000  -4.28804636E-003   34227.77  <-- SCF
     10  -1.93018253E+004  1.52596689E+000  -2.13509381E-003   34342.78  <-- SCF
     11  -1.93019071E+004  1.52396202E+000   3.02788243E-003   34457.04  <-- SCF
     12  -1.93017948E+004  1.48508413E+000  -4.15760516E-003   34566.52  <-- SCF
     13  -1.93017902E+004  1.47918905E+000  -1.72621336E-004   34698.75  <-- SCF
     14  -1.93017864E+004  1.47908829E+000  -1.40516044E-004   34825.37  <-- SCF
     15  -1.93017804E+004  1.47927797E+000  -2.22854863E-004   34937.09  <-- SCF
     16  -1.93017782E+004  1.48233113E+000  -7.96433140E-005   35048.47  <-- SCF
     17  -1.93017787E+004  1.48282746E+000   1.63492168E-005   35158.38  <-- SCF
     18  -1.93017783E+004  1.48111373E+000  -1.37254641E-005   35274.80  <-- SCF
     19  -1.93017783E+004  1.48091876E+000   9.64489772E-007   35384.46  <-- SCF
     20  -1.93017783E+004  1.48099672E+000   5.35699707E-008   35475.57  <-- SCF
     21  -1.93017783E+004  1.48089485E+000  -2.04010241E-007   35555.98  <-- SCF
     22  -1.93017783E+004  1.48091020E+000  -1.37721432E-010   35625.39  <-- SCF
     23  -1.93017783E+004  1.48093140E+000   7.07397773E-010   35706.08  <-- SCF
------------------------------------------------------------------------ <-- SCF
 
Final energy, E             =  -19301.08263603     eV
Final free energy (E-TS)    =  -19301.77830905     eV
(energies not corrected for finite basis set)
 
NB est. 0K energy (E-0.5TS)      =  -19301.43047254     eV
 

 *********************************** Forces ***********************************
 *                                                                            *
 *                        Cartesian components (eV/A)                         *
 * -------------------------------------------------------------------------- *
 *                   x                    y                    z              *
 *                                                                            *
 * O         1      1.38348              1.25278              1.19331         *
 * O         2     -1.22885              1.22885              1.10437         *
 * O         3     -0.00663              0.00663              1.01800         *
 * O         4      1.24626             -1.24626              1.39807         *
 * O         5     -1.25278             -1.38348              1.19331         *
 * O         6     -0.24603              1.17183              0.39581         *
 * O         7      1.25374              0.13775              0.40736         *
 * O         8     -1.17183              0.24603              0.39581         *
 * O         9     -0.13775             -1.25374              0.40736         *
 * O        10      1.53374              1.40073             -1.56547         *
 * O        11     -1.32285              1.32285             -1.39075         *
 * O        12     -0.00966              0.00966             -1.34795         *
 * O        13      1.39300             -1.39300             -1.76737         *
 * O        14     -1.40073             -1.53374             -1.56547         *
 * Mg        1      0.02282              1.72087              2.77178         *
 * Mg        2      1.72410             -0.00096              2.70533         *
 * Mg        3     -1.72087             -0.02282              2.77178         *
 * Mg        4      0.00096             -1.72410              2.70533         *
 * Mg        5     -2.68289              2.68289             -0.05740         *
 * Ca        1      2.72365              3.43364             -0.10326         *
 * Ca        2      0.08173             -0.08173             -0.28229         *
 * Ca        3      3.21766             -3.21766             -0.10311         *
 * Ca        4     -3.43364             -2.72365             -0.10326         *
 * Ca        5      0.03046              3.17615             -2.59112         *
 * Ca        6      3.17293             -0.00616             -2.49954         *
 * Ca        7     -3.17615             -0.03046             -2.59112         *
 * Ca        8      0.00616             -3.17293             -2.49954         *
 *                                                                            *
 ******************************************************************************

 ***************** Stress Tensor *****************
 *                                               *
 *          Cartesian components (GPa)           *
 * --------------------------------------------- *
 *             x             y             z     *
 *                                               *
 *  x     15.173515     -0.394689     -0.046043  *
 *  y     -0.394689     15.173515      0.046043  *
 *  z     -0.046043      0.046043     15.093062  *
 *                                               *
 *  Pressure:  -15.1467                          *
 *                                               *
 *************************************************

 *********** Constrained Stress Tensor ***********
 *                                               *
 *          Cartesian components (GPa)           *
 * --------------------------------------------- *
 *             x             y             z     *
 *                                               *
 *  x     15.454138     -0.000000      0.000000  *
 *  y     -0.000000     15.454138     -0.000000  *
 *  z      0.000000     -0.000000     15.454138  *
 *                                               *
 *  Pressure:  -15.4541                          *
 *                                               *
 *************************************************
  
 +------------+-------------+-------------+-----------------+ <-- min BFGS
 |    Step    |   lambda    |   F.delta   |    enthalpy     | <-- min BFGS
 +------------+-------------+-------------+-----------------+ <-- min BFGS
 |  previous  |    0.000000 |    0.093928 |   -19299.156374 | <-- min BFGS
 | trial step |    1.000000 |    0.093797 |   -19301.761154 | <-- min BFGS
 +------------+-------------+-------------+-----------------+ <-- min BFGS
  
 BFGS: finished iteration     1 with enthalpy= -1.93017612E+004 eV
  
 +-----------+-----------------+-----------------+------------+-----+ <-- BFGS
 | Parameter |      value      |    tolerance    |    units   | OK? | <-- BFGS
 +-----------+-----------------+-----------------+------------+-----+ <-- BFGS
 |  dE/ion   |   9.647331E-002 |   2.000000E-005 |         eV | No  | <-- BFGS
 |  |F|max   |   4.551628E+000 |   5.000000E-002 |       eV/A | No  | <-- BFGS
 |  |dR|max  |   1.795251E-002 |   1.000000E-003 |          A | No  | <-- BFGS
 |   Smax    |   1.514668E+001 |   1.000000E-001 |        GPa | No  | <-- BFGS
 +-----------+-----------------+-----------------+------------+-----+ <-- BFGS
  

================================================================================
 Starting BFGS iteration          2 ...
================================================================================
  
 +------------+-------------+-------------+-----------------+ <-- min BFGS
 |    Step    |   lambda    |   F.delta   |    enthalpy     | <-- min BFGS
 +------------+-------------+-------------+-----------------+ <-- min BFGS
 |  previous  |    0.000000 |    0.093681 |   -19301.761154 | <-- min BFGS
 +------------+-------------+-------------+-----------------+ <-- min BFGS
  

--------------------------------------------------------------------------------
 BFGS: starting iteration         2 with trial guess (lambda=  1.000000)
--------------------------------------------------------------------------------

                           -------------------------------
                                      Unit Cell
                           -------------------------------
        Real Lattice(A)              Reciprocal Lattice(1/A)
   8.2334629   0.0000000  -0.0000000        0.7631279  -0.0000000   0.0000000
   0.0000000   8.2334629   0.0000000       -0.0000000   0.7631279  -0.0000000
  -0.0000000   0.0000000   8.2334629        0.0000000  -0.0000000   0.7631279

                       Lattice parameters(A)       Cell Angles
                    a =    8.233463          alpha =   90.000000
                    b =    8.233463          beta  =   90.000000
                    c =    8.233463          gamma =   90.000000

                Current cell volume =  558.145724 A**3

                           -------------------------------
                                     Cell Contents
                           -------------------------------

            xxxxxxxxxxxxxxxxxxxxxxxxxxxxxxxxxxxxxxxxxxxxxxxxxxxxxxxxxxxx
            x  Element    Atom        Fractional coordinates of atoms  x
            x            Number           u          v          w      x
            x----------------------------------------------------------x
            x  O            1         0.001273   0.001150   0.001111   x
            x  O            2         0.665534   0.001132   0.001006   x
            x  O            3         0.333327   0.333339   0.000942   x
            x  O            4         0.001144   0.665523   0.001305   x
            x  O            5         0.665517   0.665394   0.001111   x
            x  O            6         0.333098   0.001078   0.333709   x
            x  O            7         0.001152   0.333465   0.333719   x
            x  O            8         0.665589   0.333569   0.333709   x
            x  O            9         0.333201   0.665514   0.333719   x
            x  O           10         0.001424   0.001299   0.665217   x
            x  O           11         0.665433   0.001233   0.665399   x
            x  O           12         0.333324   0.333342   0.665422   x
            x  O           13         0.001292   0.665375   0.665025   x
            x  O           14         0.665368   0.665243   0.665217   x
            x  Mg           1         0.333355   0.001572   0.002578   x
            x  Mg           2         0.001575   0.333332   0.002517   x
            x  Mg           3         0.665095   0.333312   0.002578   x
            x  Mg           4         0.333334   0.665092   0.002517   x
            x  Mg           5         0.664186   0.002481   0.333280   x
            x  Ca           1         0.002545   0.003234   0.333238   x
            x  Ca           2         0.333407   0.333259   0.333079   x
            x  Ca           3         0.003029   0.663638   0.333238   x
            x  Ca           4         0.663432   0.664122   0.333238   x
            x  Ca           5         0.333362   0.002998   0.664240   x
            x  Ca           6         0.002995   0.333328   0.664323   x
            x  Ca           7         0.663669   0.333304   0.664240   x
            x  Ca           8         0.333339   0.663672   0.664323   x
            xxxxxxxxxxxxxxxxxxxxxxxxxxxxxxxxxxxxxxxxxxxxxxxxxxxxxxxxxxxx


------------------------------------------------------------------------ <-- SCF
SCF loop      Energy           Fermi           Energy gain       Timer   <-- SCF
                               energy          per atom          (sec)   <-- SCF
------------------------------------------------------------------------ <-- SCF
Initial  -1.92974760E+004  0.00000000E+000                     39698.96  <-- SCF
      1  -1.93115857E+004  2.56674735E+000   5.22581579E-001   40191.80  <-- SCF
