 +-------------------------------------------------+
 |                                                 |
 |      CCC   AA    SSS  TTTTT  EEEEE  PPPP        |
 |     C     A  A  S       T    E      P   P       |
 |     C     AAAA   SS     T    EEE    PPPP        |
 |     C     A  A     S    T    E      P           |
 |      CCC  A  A  SSS     T    EEEEE  P           |
 |                                                 |
 +-------------------------------------------------+
 |                                                 |
 | Welcome to Academic Release CASTEP version 6.1  |
 | Ab Initio Total Energy Program                  |
 |                                                 |
 | Authors:                                        |
 | M. Segall, M. Probert, C. Pickard, P. Hasnip,   |
 | S. Clark, K. Refson, J. R. Yates, M. Payne      |
 |                                                 |
 | Contributors:                                   |
 | P. Lindan, P. Haynes, J. White, V. Milman,      |
 | N. Govind, M. Gibson, P. Tulip, V. Cocula,      |
 | B. Montanari, D. Quigley, M. Glover,            |
 | L. Bernasconi, A. Perlov, M. Plummer,           |
 | E. McNellis, J. Meyer, J. Gale, D. Jochym       |
 | J. Aarons, B. Walker, R. Gillen                 |
 |                                                 |
 | Copyright (c) 2000 - 2012                       |
 |                                                 |
 |     Distributed under the terms of an           |
 |     Agreement between the United Kingdom        |
 |     Car-Parrinello (UKCP) Consortium,           |
 |     Daresbury Laboratory and Accelrys, Inc.     |
 |                                                 |
 | Please cite                                     |
 |                                                 |
 |     "First principles methods using CASTEP"     |
 |                                                 |
 |         Zeitschrift fuer Kristallographie       |
 |           220(5-6) pp. 567-570 (2005)           |
 |                                                 |
 | S. J. Clark, M. D. Segall, C. J. Pickard,       |
 | P. J. Hasnip, M. J. Probert, K. Refson,         |
 | M. C. Payne                                     |
 |                                                 |
 |       in all publications arising from          |
 |              your use of CASTEP                 |
 |                                                 |
 +-------------------------------------------------+


 Compiled for linux_x86_64_gfortran on Wed Nov 21 15:08:09 2012
 from source code version eaed21d6e002+  2012-10-31
 using fast optimisation, fftw3 FFTs and openblas LAPACK and BLAS.


 Atomic calculation performed for O: 1s2 2s2 2p4

 Converged in 60 iterations to an ae energy of -2027.926 eV

   ============================================================                
   | Pseudopotential Report - Date of generation  5-05-2016   |                
   ------------------------------------------------------------                
   | Element: O Ionic charge:  6.00 Level of theory: LDA      |                
   |                                                          |                
   |               Reference Electronic Structure             |                
   |         Orbital         Occupation         Energy        |                
   |            2s              2.000           -0.873        |                
   |            2p              4.000           -0.338        |                
   |                                                          |                
   |                 Pseudopotential Definition               |                
   |        Beta     l      e      Rc     scheme   norm       |                
   |          1      0   -0.873   1.300     qc      0         |                
   |          2      0    0.250   1.300     qc      0         |                
   |          3      1   -0.338   1.300     qc      0         |                
   |          4      1    0.250   1.300     qc      0         |                
   |         loc     2    0.000   1.004     pn      0         |                
   |                                                          |                
   | Augmentation charge Rinner = 0.701                       |                
   | Partial core correction Rc = 0.701                       |                
   ------------------------------------------------------------                
   | "2|1.0|1.3|0.7|13|16|18|20:21(qc=7)"                     |                
   ------------------------------------------------------------                
   |      Author: Chris J. Pickard, Cambridge University      |                
   ============================================================                

 Atomic calculation performed for Mg: 1s2 2s2 2p6 3s2

 Converged in 47 iterations to an ae energy of -5427.407 eV

 Identity difference:   5.17267234911703770E-004

   ============================================================                
   | Pseudopotential Report - Date of generation  5-05-2016   |                
   ------------------------------------------------------------                
   | Element: Mg Ionic charge:  8.00 Level of theory: LDA     |                
   |                                                          |                
   |               Reference Electronic Structure             |                
   |         Orbital         Occupation         Energy        |                
   |            2p              6.000           -1.717        |                
   |            3s              2.000           -0.176        |                
   |                                                          |                
   |                 Pseudopotential Definition               |                
   |        Beta     l      e      Rc     scheme   norm       |                
   |          1      0   -0.176   1.994     qc      1         |                
   |          2      1   -1.717   1.994     qc      0         |                
   |          3      1    0.000   1.994     qc      0         |                
   |          4      1    0.250   1.994     qc      0         |                
   |         loc     2    0.000   1.605     pn      0         |                
   |                                                          |                
   | Augmentation charge Rinner = 1.405                       |                
   | Partial core correction Rc = 1.405                       |                
   ------------------------------------------------------------                
   | "2|1.6|2|1.4|6|7|8|30NH:21U:31UU:32LGG(qc=4.5)[]"        |                
   ------------------------------------------------------------                
   |      Author: Chris J. Pickard, Cambridge University      |                
   ============================================================                

 Doing a self consistent calculation for the test configuration

 Atomic calculation performed for Mg: 1s2 2s2 2p6 3s2

 Converged in 47 iterations to an ae energy of -5427.407 eV

 ---------------------------------------
 AE eigenvalue nl 10 =      -46.06264936
 AE eigenvalue nl 20 =       -2.91364591
 AE eigenvalue nl 21 =       -1.71672732
 AE eigenvalue nl 30 =       -0.17593422
 ---------------------------------------
 PS eigenvalue nl 21 =       -1.71622098
 PS eigenvalue nl 30 =       -0.17592300
 ---------------------------------------

 Atomic calculation performed for Ca: 1s2 2s2 2p6 3s2 3p6 4s2

 Converged in 44 iterations to an ae energy of -18468.058 eV

   ============================================================                
   | Pseudopotential Report - Date of generation  5-05-2016   |                
   ------------------------------------------------------------                
   | Element: Ca Ionic charge: 10.00 Level of theory: LDA     |                
   |                                                          |                
   |               Reference Electronic Structure             |                
   |         Orbital         Occupation         Energy        |                
   |            3s              2.000           -1.721        |                
   |            3p              6.000           -1.028        |                
   |            4s              2.000           -0.142        |                
   |                                                          |                
   |                 Pseudopotential Definition               |                
   |        Beta     l      e      Rc     scheme   norm       |                
   |          1      0   -1.721   2.005     qc      0         |                
   |          2      0   -0.142   2.005     qc      0         |                
   |          3      1   -1.028   2.005     qc      0         |                
   |          4      1    0.250   2.005     qc      0         |                
   |          5      2    0.000   2.005     qc      0         |                
   |          6      2    1.000   2.005     qc      0         |                
   |         loc     3    0.000   1.601     pn      0         |                
   |                                                          |                
   | Augmentation charge Rinner = 1.401                       |                
   | Partial core correction Rc = 1.401                       |                
   ------------------------------------------------------------                
   | "3|1.6|2.0|1.4|7|9|10|30U:40U:31:32U=0U=1.0"             |                
   ------------------------------------------------------------                
   |      Author: Chris J. Pickard, Cambridge University      |                
   ============================================================                

 Pseudo atomic calculation performed for O 2s2 2p4

 Converged in 30 iterations to a total energy of -432.5600 eV


 Pseudo atomic calculation performed for Mg 2p6 3s2

 Converged in 23 iterations to a total energy of -1024.6674 eV


 Pseudo atomic calculation performed for Ca 3s2 3p6 4s2

 Converged in 24 iterations to a total energy of -1000.4575 eV

 Calculation parallelised over 2 processes.
 Data is distributed by k-point(2-way)

 ************************************ Title ************************************
 MgO

 ***************************** General Parameters ******************************
  
 output verbosity                               : normal  (1)
 write checkpoint data to                       : test_9.check
 type of calculation                            : geometry optimization
 stress calculation                             : on
 density difference calculation                 : off
 electron localisation func (ELF) calculation   : off
 Hirshfeld analysis                             : off
 unlimited duration calculation
 timing information                             : on
 memory usage estimate                          : on
 write final potential to formatted file        : off
 write final density to formatted file          : off
 write BibTeX reference list                    : on
  
 output         length unit                     : A
 output           mass unit                     : amu
 output           time unit                     : ps
 output         charge unit                     : e
 output         energy unit                     : eV
 output          force unit                     : eV/A
 output       velocity unit                     : A/ps
 output       pressure unit                     : GPa
 output     inv_length unit                     : 1/A
 output      frequency unit                     : cm-1
 output force constant unit                     : eV/A**2
 output         volume unit                     : A**3
 output   IR intensity unit                     : (D/A)**2/amu
 output         dipole unit                     : D
 output         efield unit                     : eV/A/e
 output        entropy unit                     : J/mol/K
  
 wavefunctions paging                           : none
 random number generator seed                   : randomised (125224633)
 data distribution                              : optimal for this architecture
 optimization strategy                          : maximize speed(+++)

 *********************** Exchange-Correlation Parameters ***********************
  
 using functional                               : Local Density Approximation
 Divergence correction                          : off
 DFT+D: Semi-empirical dispersion correction    : off

 ************************* Pseudopotential Parameters **************************
  
 pseudopotential representation                 : reciprocal space
 <beta|phi> representation                      : reciprocal space

 **************************** Basis Set Parameters *****************************
  
 plane wave basis set cut-off                   :   450.0000   eV
 size of standard grid                          :     2.0000
 size of   fine   gmax                          :    21.7358   1/A
 largest prime factor in FFT                    :          5
 finite basis set correction                    : automatic
 number of sample energies                      :          3
           sample  spacing                      :     5.0000   eV

 **************************** Electronic Parameters ****************************
  
 number of  electrons                           :  202.0    
 net charge of system                           :  0.000    
 net spin   of system                           :  0.000    
 number of  up  spins                           :  101.0    
 number of down spins                           :  101.0    
 treating system as non-spin-polarized
 number of bands                                :        121

 ********************* Electronic Minimization Parameters **********************
  
 Method: Treating system as metallic with density mixing treatment of electrons,
         and number of  SD  steps               :          1
         and number of  CG  steps               :          4
  
 total energy / atom convergence tol.           : 0.1000E-06   eV
 eigen-energy convergence tolerance             : 0.2673E-07   eV
 max force / atom convergence tol.              : ignored
 convergence tolerance window                   :          3   cycles
 max. number of SCF cycles                      :         60
 number of fixed-spin iterations                :         10
 smearing scheme                                : Gaussian
 smearing width                                 : 0.2000       eV
 Fermi energy convergence tolerance             : 0.2673E-08   eV
 periodic dipole correction                     : NONE

 ************************** Density Mixing Parameters **************************
  
 density-mixing scheme                          : Pulay
 max. length of mixing history                  :         30
 charge density mixing amplitude                : 0.8000    
 cut-off energy for mixing                      :  450.0       eV
 charge density mixing g-vector                 :  1.500       1/A

 *********************** Population Analysis Parameters ************************
  
 Population analysis with cutoff                :  3.000       A

 ********************** Geometry Optimization Parameters ***********************
  
 optimization method                            : BFGS
 variable cell method                           : fixed basis quality
 max. number of steps                           :         30
 estimated bulk modulus                         :  500.0       GPa
 estimated <frequency>                          :  1668.       cm-1
 geom line minimiser                            : on
 with line minimiser tolerance                  :     0.4000
 total energy convergence tolerance             : 0.2000E-04   eV/atom
        max ionic |force| tolerance             : 0.5000E-01   eV/A
 max ionic |displacement| tolerance             : 0.1000E-02   A
   max |stress component| tolerance             : 0.1000       GPa
 convergence tolerance window                   :          2   steps
 backup results every                           :          5   steps

 *******************************************************************************
  

                           -------------------------------
                                      Unit Cell
                           -------------------------------
        Real Lattice(A)                      Reciprocal Lattice(1/A)
   8.4000000   0.0000000   0.0000000        0.7479983   0.0000000   0.0000000
   0.0000000   8.4000000   0.0000000        0.0000000   0.7479983   0.0000000
   0.0000000   0.0000000   8.4000000        0.0000000   0.0000000   0.7479983

                       Lattice parameters(A)       Cell Angles
                    a =    8.400000          alpha =   90.000000
                    b =    8.400000          beta  =   90.000000
                    c =    8.400000          gamma =   90.000000

                       Current cell volume =  592.704000       A**3

                           -------------------------------
                                     Cell Contents
                           -------------------------------
                         Total number of ions in cell =   27
                      Total number of species in cell =    3
                        Max number of any one species =   14

            xxxxxxxxxxxxxxxxxxxxxxxxxxxxxxxxxxxxxxxxxxxxxxxxxxxxxxxxxxxx
            x  Element    Atom        Fractional coordinates of atoms  x
            x            Number           u          v          w      x
            x----------------------------------------------------------x
            x  O            1         0.000000   0.000000   0.000000   x
            x  O            2         0.666667   0.000000   0.000000   x
            x  O            3         0.333333   0.333333   0.000000   x
            x  O            4         0.000000   0.666667   0.000000   x
            x  O            5         0.666667   0.666667   0.000000   x
            x  O            6         0.333333   0.000000   0.333333   x
            x  O            7         0.000000   0.333333   0.333333   x
            x  O            8         0.666667   0.333333   0.333333   x
            x  O            9         0.333333   0.666667   0.333333   x
            x  O           10         0.000000   0.000000   0.666667   x
            x  O           11         0.666667   0.000000   0.666667   x
            x  O           12         0.333333   0.333333   0.666667   x
            x  O           13         0.000000   0.666667   0.666667   x
            x  O           14         0.666667   0.666667   0.666667   x
            x  Mg           1         0.333333   0.000000   0.000000   x
            x  Mg           2         0.000000   0.333333   0.000000   x
            x  Mg           3         0.666667   0.333333   0.000000   x
            x  Mg           4         0.333333   0.666667   0.000000   x
            x  Mg           5         0.666667   0.000000   0.333333   x
            x  Mg           6         0.666667   0.666667   0.333333   x
            x  Ca           1         0.000000   0.000000   0.333333   x
            x  Ca           2         0.333333   0.333333   0.333333   x
            x  Ca           3         0.000000   0.666667   0.333333   x
            x  Ca           4         0.333333   0.000000   0.666667   x
            x  Ca           5         0.000000   0.333333   0.666667   x
            x  Ca           6         0.666667   0.333333   0.666667   x
            x  Ca           7         0.333333   0.666667   0.666667   x
            xxxxxxxxxxxxxxxxxxxxxxxxxxxxxxxxxxxxxxxxxxxxxxxxxxxxxxxxxxxx


                         No user defined ionic velocities

                           -------------------------------
                                   Details of Species
                           -------------------------------

                               Mass of species in AMU
                                    O   15.9994000
                                    Mg   24.3050000
                                    Ca   40.0780000

                          Electric Quadrupole Moment (Barn)
                                    O   -0.0255800 Isotope 17
                                    Mg    0.1994000 Isotope 25
                                    Ca   -0.0408000 Isotope 43

                          Files used for pseudopotentials:
                                    O Pseudopotential generated on-the-fly
                                    Mg Pseudopotential generated on-the-fly
                                    Ca Pseudopotential generated on-the-fly

                           -------------------------------
                              k-Points For BZ Sampling
                           -------------------------------
                       MP grid size for SCF calculation is  3  3  3
                         Number of kpoints used =          10

             +++++++++++++++++++++++++++++++++++++++++++++++++++++++
             +  Number       Fractional coordinates        Weight  +
             +-----------------------------------------------------+
             +     1  -0.333333  -0.333333   0.000000   0.1481481  +
             +     2  -0.333333   0.000000  -0.333333   0.0740741  +
             +     3  -0.333333   0.000000   0.000000   0.0740741  +
             +     4  -0.333333   0.000000   0.333333   0.0740741  +
             +     5   0.000000   0.000000  -0.333333   0.0740741  +
             +     6   0.000000   0.000000   0.000000   0.0370370  +
             +     7   0.000000   0.333333  -0.333333   0.1481481  +
             +     8   0.000000   0.333333   0.000000   0.0740741  +
             +     9   0.333333  -0.333333  -0.333333   0.1481481  +
             +    10   0.333333   0.333333   0.333333   0.1481481  +
             +++++++++++++++++++++++++++++++++++++++++++++++++++++++

                           -------------------------------
                               Symmetry and Constraints
                           -------------------------------

                      Number of symmetry operations   =           2
                      Number of ionic constraints     =           3
                      Maximum deviation from symmetry = 0.839999E-09     ANG
               Point group of crystal =     3: Cs, m, m
           Set iprint > 1 for details on symmetry rotations/translations

                          Centre of mass is constrained
             Set iprint > 1 for details of linear ionic constraints

                         Number of cell constraints= 5
                         Cell constraints are:  1 1 1 0 0 0

                         External pressure/stress (GPa)
                          0.00000   0.00000   0.00000
                                    0.00000   0.00000
                                              0.00000
  
+---------------- MEMORY AND SCRATCH DISK ESTIMATES PER NODE -----------------+
|                                                     Memory          Disk    |
| Model and support data                              713.6 MB         0.0 MB |
| Electronic energy minimisation requirements         288.8 MB         0.0 MB |
|                                               ----------------------------- |
| Approx. total storage required per node            1002.4 MB         0.0 MB |
|                                                                             |
| Requirements will fluctuate during execution and may exceed these estimates |
+-----------------------------------------------------------------------------+
Calculating finite basis set correction with  3 cut-off energies.
Calculating total energy with cut-off of  440.000eV.
------------------------------------------------------------------------ <-- SCF
SCF loop      Energy           Fermi           Energy gain       Timer   <-- SCF
                               energy          per atom          (sec)   <-- SCF
------------------------------------------------------------------------ <-- SCF
Initial  -1.68459454E+004  0.00000000E+000                        39.19  <-- SCF
      1  -1.86230166E+004  4.48735882E+000   6.58174520E+001     138.43  <-- SCF
      2  -1.93246939E+004 -8.68291362E-001   2.59880509E+001     211.65  <-- SCF
      3  -1.93541974E+004 -1.00881609E+000   1.09272067E+000     286.41  <-- SCF
      4  -1.94261575E+004  3.84841886E+000   2.66518914E+000     376.91  <-- SCF
      5  -1.93326741E+004  1.84106932E+000  -3.46234999E+000     471.80  <-- SCF
      6  -1.93367747E+004  1.88047286E+000   1.51874870E-001     553.43  <-- SCF
      7  -1.93254060E+004  7.45520779E-001  -4.21063990E-001     638.36  <-- SCF
      8  -1.93252059E+004  1.15321385E+000  -7.40770140E-003     724.59  <-- SCF
      9  -1.93234377E+004  1.05105939E+000  -6.54924088E-002     810.69  <-- SCF
     10  -1.93219240E+004  8.98077942E-001  -5.60606278E-002     900.86  <-- SCF
     11  -1.93219001E+004  1.01626698E+000  -8.86983776E-004     987.07  <-- SCF
     12  -1.93212709E+004  1.07017642E+000  -2.33020464E-002    1077.91  <-- SCF
     13  -1.93208950E+004  1.06035570E+000  -1.39210168E-002    1167.30  <-- SCF
     14  -1.93208651E+004  1.08531091E+000  -1.10982766E-003    1254.46  <-- SCF
     15  -1.93207267E+004  1.08710324E+000  -5.12642688E-003    1340.10  <-- SCF
     16  -1.93207560E+004  1.09947553E+000   1.08462347E-003    1432.02  <-- SCF
     17  -1.93207274E+004  1.09770490E+000  -1.05598653E-003    1513.77  <-- SCF
     18  -1.93207291E+004  1.09574168E+000   6.26836072E-005    1599.19  <-- SCF
     19  -1.93207283E+004  1.09502413E+000  -3.20278030E-005    1679.01  <-- SCF
     20  -1.93207279E+004  1.09623292E+000  -1.46033040E-005    1760.80  <-- SCF
     21  -1.93207279E+004  1.09648212E+000  -2.74543321E-007    1838.45  <-- SCF
     22  -1.93207279E+004  1.09656407E+000  -1.81000564E-008    1897.78  <-- SCF
     23  -1.93207279E+004  1.09662354E+000   1.19988366E-008    1952.61  <-- SCF
------------------------------------------------------------------------ <-- SCF
 
Final energy, E             =  -19319.99036971     eV
Final free energy (E-TS)    =  -19320.72786678     eV
(energies not corrected for finite basis set)
 
NB est. 0K energy (E-0.5TS)      =  -19320.35911824     eV
 
Calculating total energy with cut-off of  445.000eV.
------------------------------------------------------------------------ <-- SCF
SCF loop      Energy           Fermi           Energy gain       Timer   <-- SCF
                               energy          per atom          (sec)   <-- SCF
------------------------------------------------------------------------ <-- SCF
Initial  -1.93199904E+004  0.00000000E+000                      1972.51  <-- SCF
      1  -1.93211117E+004  1.09213820E+000   4.15314628E-002    2043.38  <-- SCF
      2  -1.93211118E+004  1.09214054E+000   4.64419883E-006    2119.44  <-- SCF
      3  -1.93211238E+004  1.10827435E+000   4.42127213E-004    2196.05  <-- SCF
      4  -1.93211120E+004  1.10625303E+000  -4.36420670E-004    2270.50  <-- SCF
      5  -1.93211127E+004  1.09922197E+000   2.45522482E-005    2348.17  <-- SCF
      6  -1.93211116E+004  1.09356828E+000  -3.88818688E-005    2425.34  <-- SCF
      7  -1.93211118E+004  1.09522018E+000   8.91380201E-006    2499.14  <-- SCF
      8  -1.93211116E+004  1.09655426E+000  -1.08465836E-005    2571.78  <-- SCF
      9  -1.93211115E+004  1.09690659E+000  -7.85659638E-007    2642.99  <-- SCF
     10  -1.93211115E+004  1.09712136E+000   5.07778233E-007    2698.43  <-- SCF
     11  -1.93211115E+004  1.09697310E+000  -4.08435250E-007    2752.64  <-- SCF
     12  -1.93211115E+004  1.09697519E+000  -2.14854601E-009    2806.00  <-- SCF
     13  -1.93211115E+004  1.09695791E+000  -9.10886345E-010    2861.08  <-- SCF
------------------------------------------------------------------------ <-- SCF
 
Final energy, E             =  -19320.37414714     eV
Final free energy (E-TS)    =  -19321.11153731     eV
(energies not corrected for finite basis set)
 
NB est. 0K energy (E-0.5TS)      =  -19320.74284223     eV
 
Calculating total energy with cut-off of  450.000eV.
------------------------------------------------------------------------ <-- SCF
SCF loop      Energy           Fermi           Energy gain       Timer   <-- SCF
                               energy          per atom          (sec)   <-- SCF
------------------------------------------------------------------------ <-- SCF
Initial  -1.93203741E+004  0.00000000E+000                      2881.15  <-- SCF
      1  -1.93214561E+004  1.09250313E+000   4.00743419E-002    2954.33  <-- SCF
      2  -1.93214563E+004  1.09250540E+000   4.43371671E-006    3034.69  <-- SCF
      3  -1.93214675E+004  1.10575603E+000   4.17401771E-004    3113.02  <-- SCF
      4  -1.93214561E+004  1.10761362E+000  -4.23044927E-004    3186.64  <-- SCF
      5  -1.93214567E+004  1.09826269E+000   2.17971295E-005    3262.55  <-- SCF
      6  -1.93214560E+004  1.09457384E+000  -2.52223106E-005    3339.50  <-- SCF
      7  -1.93214563E+004  1.09612556E+000   8.73285976E-006    3414.29  <-- SCF
      8  -1.93214560E+004  1.09635159E+000  -9.34370908E-006    3490.45  <-- SCF
      9  -1.93214560E+004  1.09687543E+000  -7.37326175E-007    3561.95  <-- SCF
     10  -1.93214560E+004  1.09718052E+000  -3.94694615E-007    3624.91  <-- SCF
     11  -1.93214560E+004  1.09724196E+000   7.15859277E-008    3677.69  <-- SCF
     12  -1.93214560E+004  1.09720838E+000  -8.91581283E-008    3730.47  <-- SCF
------------------------------------------------------------------------ <-- SCF
 
Final energy, E             =  -19320.71823018     eV
Final free energy (E-TS)    =  -19321.45597510     eV
(energies not corrected for finite basis set)
 
NB est. 0K energy (E-0.5TS)      =  -19321.08710264     eV
 
 For future reference: finite basis dEtot/dlog(Ecut) =     -31.589565eV
 Total energy corrected for finite basis set =  -19321.450764 eV
 
+---------------- MEMORY AND SCRATCH DISK ESTIMATES PER NODE -----------------+
|                                                     Memory          Disk    |
| Model and support data                              713.6 MB         0.0 MB |
| Electronic energy minimisation requirements         288.8 MB         0.0 MB |
| Geometry minimisation requirements                  413.0 MB         0.0 MB |
|                                               ----------------------------- |
| Approx. total storage required per node            1415.5 MB         0.0 MB |
|                                                                             |
| Requirements will fluctuate during execution and may exceed these estimates |
+-----------------------------------------------------------------------------+
 

 *********************************** Forces ***********************************
 *                                                                            *
 *                        Cartesian components (eV/A)                         *
 * -------------------------------------------------------------------------- *
 *                   x                    y                    z              *
 *                                                                            *
 * O         1      1.28867              1.18704              1.20245         *
 * O         2     -1.15221              1.30653              0.98318         *
 * O         3     -0.01237              0.00000              0.97997         *
 * O         4      1.28867             -1.18704              1.20245         *
 * O         5     -1.15221             -1.30653              0.98318         *
 * O         6     -0.38621              1.14927              0.40154         *
 * O         7      1.21395              0.00000              0.41406         *
 * O         8     -1.05031              0.00000              0.37727         *
 * O         9     -0.38621             -1.14927              0.40154         *
 * O        10      1.45494              1.35238             -1.54800         *
 * O        11     -1.27873              1.44062             -1.26418         *
 * O        12     -0.01539              0.00000             -1.29880         *
 * O        13      1.45494             -1.35238             -1.54800         *
 * O        14     -1.27873             -1.44062             -1.26418         *
 * Mg        1      0.03073              1.62604              2.72536         *
 * Mg        2      1.62753              0.00000              2.66390         *
 * Mg        3     -1.62478              0.00000              2.76911         *
 * Mg        4      0.03073             -1.62604              2.72536         *
 * Mg        5     -2.72229              1.58936             -0.05338         *
 * Mg        6     -2.72229             -1.58936             -0.05338         *
 * Ca        1      2.58986              3.28503             -0.10068         *
 * Ca        2      0.12772              0.00000             -0.25925         *
 * Ca        3      2.58986             -3.28503             -0.10068         *
 * Ca        4      0.04519              3.20053             -2.59077         *
 * Ca        5      3.19677              0.00000             -2.50545         *
 * Ca        6     -3.20303              0.00000             -2.65185         *
 * Ca        7      0.04519             -3.20053             -2.59077         *
 *                                                                            *
 ******************************************************************************

 ***************** Stress Tensor *****************
 *                                               *
 *          Cartesian components (GPa)           *
 * --------------------------------------------- *
 *             x             y             z     *
 *                                               *
 *  x     15.122343      0.000000     -0.082509  *
 *  y      0.000000     15.600780      0.000000  *
 *  z     -0.082509      0.000000     14.652431  *
 *                                               *
 *  Pressure:  -15.1252                          *
 *                                               *
 *************************************************

 *********** Constrained Stress Tensor ***********
 *                                               *
 *          Cartesian components (GPa)           *
 * --------------------------------------------- *
 *             x             y             z     *
 *                                               *
 *  x     15.435189      0.000000     -0.000000  *
 *  y      0.000000     15.435189      0.000000  *
 *  z     -0.000000      0.000000     15.435189  *
 *                                               *
 *  Pressure:  -15.4352                          *
 *                                               *
 *************************************************
 BFGS: finished iteration     0 with enthalpy= -1.93214508E+004 eV
  
 +-----------+-----------------+-----------------+------------+-----+ <-- BFGS
 | Parameter |      value      |    tolerance    |    units   | OK? | <-- BFGS
 +-----------+-----------------+-----------------+------------+-----+ <-- BFGS
 |  dE/ion   |   0.000000E+000 |   2.000000E-005 |         eV | No  | <-- BFGS
 |  |F|max   |   4.184374E+000 |   5.000000E-002 |       eV/A | No  | <-- BFGS
 |  |dR|max  |   0.000000E+000 |   1.000000E-003 |          A | No  | <-- BFGS
 |   Smax    |   1.512547E+001 |   1.000000E-001 |        GPa | No  | <-- BFGS
 +-----------+-----------------+-----------------+------------+-----+ <-- BFGS
  

================================================================================
 Starting BFGS iteration          1 ...
================================================================================
  
 +------------+-------------+-------------+-----------------+ <-- min BFGS
 |    Step    |   lambda    |   F.delta   |    enthalpy     | <-- min BFGS
 +------------+-------------+-------------+-----------------+ <-- min BFGS
 |  previous  |    0.000000 |    0.093827 |   -19321.450764 | <-- min BFGS
 +------------+-------------+-------------+-----------------+ <-- min BFGS
  

--------------------------------------------------------------------------------
 BFGS: starting iteration         1 with trial guess (lambda=  1.000000)
--------------------------------------------------------------------------------

                           -------------------------------
                                      Unit Cell
                           -------------------------------
        Real Lattice(A)              Reciprocal Lattice(1/A)
   8.3152974   0.0000000   0.0000000        0.7556176   0.0000000  -0.0000000
   0.0000000   8.3152974   0.0000000        0.0000000   0.7556176   0.0000000
   0.0000000   0.0000000   8.3152974       -0.0000000   0.0000000   0.7556176

                       Lattice parameters(A)       Cell Angles
                    a =    8.315297          alpha =   90.000000
                    b =    8.315297          beta  =   90.000000
                    c =    8.315297          gamma =   90.000000

                Current cell volume =  574.954335 A**3

                           -------------------------------
                                     Cell Contents
                           -------------------------------

            xxxxxxxxxxxxxxxxxxxxxxxxxxxxxxxxxxxxxxxxxxxxxxxxxxxxxxxxxxxx
            x  Element    Atom        Fractional coordinates of atoms  x
            x            Number           u          v          w      x
            x----------------------------------------------------------x
            x  O            1         0.000623   0.000574   0.000581   x
            x  O            2         0.666110   0.000631   0.000475   x
            x  O            3         0.333327   0.333333   0.000473   x
            x  O            4         0.000623   0.666093   0.000581   x
            x  O            5         0.666110   0.666035   0.000475   x
            x  O            6         0.333147   0.000555   0.333527   x
            x  O            7         0.000587   0.333333   0.333533   x
            x  O            8         0.666159   0.333333   0.333516   x
            x  O            9         0.333147   0.666111   0.333527   x
            x  O           10         0.000703   0.000653   0.665919   x
            x  O           11         0.666049   0.000696   0.666056   x
            x  O           12         0.333326   0.333333   0.666039   x
            x  O           13         0.000703   0.666013   0.665919   x
            x  O           14         0.666049   0.665971   0.666056   x
            x  Mg           1         0.333348   0.000786   0.001317   x
            x  Mg           2         0.000786   0.333333   0.001287   x
            x  Mg           3         0.665882   0.333333   0.001338   x
            x  Mg           4         0.333348   0.665881   0.001317   x
            x  Mg           5         0.665351   0.000768   0.333308   x
            x  Mg           6         0.665351   0.665899   0.333308   x
            x  Ca           1         0.001251   0.001587   0.333285   x
            x  Ca           2         0.333395   0.333333   0.333208   x
            x  Ca           3         0.001251   0.665079   0.333285   x
            x  Ca           4         0.333355   0.001546   0.665415   x
            x  Ca           5         0.001545   0.333333   0.665456   x
            x  Ca           6         0.665119   0.333333   0.665385   x
            x  Ca           7         0.333355   0.665120   0.665415   x
            xxxxxxxxxxxxxxxxxxxxxxxxxxxxxxxxxxxxxxxxxxxxxxxxxxxxxxxxxxxx


------------------------------------------------------------------------ <-- SCF
SCF loop      Energy           Fermi           Energy gain       Timer   <-- SCF
                               energy          per atom          (sec)   <-- SCF
------------------------------------------------------------------------ <-- SCF
Initial  -1.93173695E+004  0.00000000E+000                      3957.05  <-- SCF
      1  -1.93309916E+004  2.15005389E+000   5.04520089E-001    4028.93  <-- SCF
      2  -1.93312756E+004  2.14616475E+000   1.05199797E-002    4136.63  <-- SCF
      3  -1.93457292E+004  8.12802423E-001   5.35319029E-001    4218.44  <-- SCF
      4  -1.93275377E+004  1.58142890E+000  -6.73761773E-001    4305.66  <-- SCF
      5  -1.93265379E+004  1.63127565E+000  -3.70294291E-002    4392.54  <-- SCF
      6  -1.93251230E+004  1.56522270E+000  -5.24022255E-002    4484.34  <-- SCF
      7  -1.93252114E+004  1.49066153E+000   3.27348141E-003    4569.49  <-- SCF
      8  -1.93241474E+004  1.30434852E+000  -3.94077397E-002    4656.36  <-- SCF
      9  -1.93241891E+004  1.29499014E+000   1.54546176E-003    4746.94  <-- SCF
     10  -1.93240876E+004  1.29758349E+000  -3.75931313E-003    4829.36  <-- SCF
     11  -1.93241300E+004  1.29209725E+000   1.57206993E-003    4911.08  <-- SCF
     12  -1.93240877E+004  1.27704104E+000  -1.56767578E-003    4991.87  <-- SCF
     13  -1.93240634E+004  1.27004820E+000  -9.00676609E-004    5072.40  <-- SCF
     14  -1.93240533E+004  1.26757824E+000  -3.74851198E-004    5156.54  <-- SCF
     15  -1.93240523E+004  1.26755405E+000  -3.73849655E-005    5240.05  <-- SCF
     16  -1.93240522E+004  1.26752996E+000  -3.01887499E-006    5316.05  <-- SCF
     17  -1.93240521E+004  1.26719532E+000  -3.78151544E-006    5388.41  <-- SCF
     18  -1.93240521E+004  1.26713751E+000   3.20632910E-007    5446.64  <-- SCF
     19  -1.93240521E+004  1.26717714E+000  -1.10710845E-007    5500.82  <-- SCF
     20  -1.93240521E+004  1.26720199E+000   8.60128779E-010    5554.36  <-- SCF
     21  -1.93240521E+004  1.26722047E+000  -8.48785666E-010    5606.95  <-- SCF
------------------------------------------------------------------------ <-- SCF
 
Final energy, E             =  -19323.35966730     eV
Final free energy (E-TS)    =  -19324.05209615     eV
(energies not corrected for finite basis set)
 
NB est. 0K energy (E-0.5TS)      =  -19323.70588172     eV
 

 *********************************** Forces ***********************************
 *                                                                            *
 *                        Cartesian components (eV/A)                         *
 * -------------------------------------------------------------------------- *
 *                   x                    y                    z              *
 *                                                                            *
 * O         1      1.34276              1.24136              1.20783         *
 * O         2     -1.19991              1.35611              1.02653         *
 * O         3     -0.01377              0.00000              1.00939         *
 * O         4      1.34276             -1.24136              1.20783         *
 * O         5     -1.19991             -1.35611              1.02653         *
 * O         6     -0.37585              1.19478              0.39235         *
 * O         7      1.26908              0.00000              0.40528         *
 * O         8     -1.10239              0.00000              0.36773         *
 * O         9     -0.37585             -1.19478              0.39235         *
 * O        10      1.48768              1.38796             -1.57772         *
 * O        11     -1.29845              1.45937             -1.32369         *
 * O        12     -0.01644              0.00000             -1.34082         *
 * O        13      1.48768             -1.38796             -1.57772         *
 * O        14     -1.29845             -1.45937             -1.32369         *
 * Mg        1      0.03195              1.72056              2.77647         *
 * Mg        2      1.72222              0.00000              2.71194         *
 * Mg        3     -1.71844              0.00000              2.82347         *
 * Mg        4      0.03195             -1.72056              2.77647         *
 * Mg        5     -2.77269              1.67788             -0.05499         *
 * Mg        6     -2.77269             -1.67788             -0.05499         *
 * Ca        1      2.59968              3.25403             -0.10397         *
 * Ca        2      0.13920              0.00000             -0.28229         *
 * Ca        3      2.59968             -3.25403             -0.10397         *
 * Ca        4      0.04776              3.16336             -2.60122         *
 * Ca        5      3.15980              0.00000             -2.51022         *
 * Ca        6     -3.16513              0.00000             -2.66765         *
 * Ca        7      0.04776             -3.16336             -2.60122         *
 *                                                                            *
 ******************************************************************************

 ***************** Stress Tensor *****************
 *                                               *
 *          Cartesian components (GPa)           *
 * --------------------------------------------- *
 *             x             y             z     *
 *                                               *
 *  x     15.409275      0.000000     -0.090572  *
 *  y      0.000000     15.909246      0.000000  *
 *  z     -0.090572      0.000000     14.942504  *
 *                                               *
 *  Pressure:  -15.4203                          *
 *                                               *
 *************************************************

 *********** Constrained Stress Tensor ***********
 *                                               *
 *          Cartesian components (GPa)           *
 * --------------------------------------------- *
 *             x             y             z     *
 *                                               *
 *  x     15.739360      0.000000     -0.000000  *
 *  y      0.000000     15.739360      0.000000  *
 *  z     -0.000000      0.000000     15.739360  *
 *                                               *
 *  Pressure:  -15.7394                          *
 *                                               *
 *************************************************
  
 +------------+-------------+-------------+-----------------+ <-- min BFGS
 |    Step    |   lambda    |   F.delta   |    enthalpy     | <-- min BFGS
 +------------+-------------+-------------+-----------------+ <-- min BFGS
 |  previous  |    0.000000 |    0.093827 |   -19321.450764 | <-- min BFGS
 | trial step |    1.000000 |    0.093840 |   -19324.056539 | <-- min BFGS
 +------------+-------------+-------------+-----------------+ <-- min BFGS
  
 BFGS: finished iteration     1 with enthalpy= -1.93240565E+004 eV
  
 +-----------+-----------------+-----------------+------------+-----+ <-- BFGS
 | Parameter |      value      |    tolerance    |    units   | OK? | <-- BFGS
 +-----------+-----------------+-----------------+------------+-----+ <-- BFGS
 |  dE/ion   |   9.651017E-002 |   2.000000E-005 |         eV | No  | <-- BFGS
 |  |F|max   |   4.166275E+000 |   5.000000E-002 |       eV/A | No  | <-- BFGS
 |  |dR|max  |   1.681107E-002 |   1.000000E-003 |          A | No  | <-- BFGS
 |   Smax    |   1.542064E+001 |   1.000000E-001 |        GPa | No  | <-- BFGS
 +-----------+-----------------+-----------------+------------+-----+ <-- BFGS
  

================================================================================
 Starting BFGS iteration          2 ...
================================================================================
  
 +------------+-------------+-------------+-----------------+ <-- min BFGS
 |    Step    |   lambda    |   F.delta   |    enthalpy     | <-- min BFGS
 +------------+-------------+-------------+-----------------+ <-- min BFGS
 |  previous  |    0.000000 |    0.093867 |   -19324.056539 | <-- min BFGS
 +------------+-------------+-------------+-----------------+ <-- min BFGS
  

--------------------------------------------------------------------------------
 BFGS: starting iteration         2 with trial guess (lambda=  1.000000)
--------------------------------------------------------------------------------

                           -------------------------------
                                      Unit Cell
                           -------------------------------
        Real Lattice(A)              Reciprocal Lattice(1/A)
   8.2306746   0.0000000   0.0000000        0.7633864   0.0000000  -0.0000000
   0.0000000   8.2306746   0.0000000        0.0000000   0.7633864   0.0000000
   0.0000000   0.0000000   8.2306746       -0.0000000   0.0000000   0.7633864

                       Lattice parameters(A)       Cell Angles
                    a =    8.230675          alpha =   90.000000
                    b =    8.230675          beta  =   90.000000
                    c =    8.230675          gamma =   90.000000

                Current cell volume =  557.578848 A**3

                           -------------------------------
                                     Cell Contents
                           -------------------------------

            xxxxxxxxxxxxxxxxxxxxxxxxxxxxxxxxxxxxxxxxxxxxxxxxxxxxxxxxxxxx
            x  Element    Atom        Fractional coordinates of atoms  x
            x            Number           u          v          w      x
            x----------------------------------------------------------x
            x  O            1         0.001265   0.001167   0.001159   x
            x  O            2         0.665536   0.001280   0.000966   x
            x  O            3         0.333321   0.333333   0.000956   x
            x  O            4         0.001265   0.665499   0.001159   x
            x  O            5         0.665536   0.665387   0.000966   x
            x  O            6         0.332967   0.001127   0.333715   x
            x  O            7         0.001194   0.333333   0.333727   x
            x  O            8         0.665632   0.333333   0.333691   x
            x  O            9         0.332967   0.665540   0.333715   x
            x  O           10         0.001414   0.001317   0.665164   x
            x  O           11         0.665428   0.001394   0.665423   x
            x  O           12         0.333318   0.333333   0.665398   x
            x  O           13         0.001414   0.665349   0.665164   x
            x  O           14         0.665428   0.665273   0.665423   x
            x  Mg           1         0.333363   0.001609   0.002645   x
            x  Mg           2         0.001610   0.333333   0.002584   x
            x  Mg           3         0.665060   0.333333   0.002688   x
            x  Mg           4         0.333363   0.665058   0.002645   x
            x  Mg           5         0.664025   0.001570   0.333281   x
            x  Mg           6         0.664025   0.665096   0.333281   x
            x  Ca           1         0.002495   0.003144   0.333235   x
            x  Ca           2         0.333462   0.333333   0.333073   x
            x  Ca           3         0.002495   0.663523   0.333235   x
            x  Ca           4         0.333378   0.003059   0.664171   x
            x  Ca           5         0.003056   0.333333   0.664256   x
            x  Ca           6         0.663605   0.333333   0.664110   x
            x  Ca           7         0.333378   0.663607   0.664171   x
            xxxxxxxxxxxxxxxxxxxxxxxxxxxxxxxxxxxxxxxxxxxxxxxxxxxxxxxxxxxx


------------------------------------------------------------------------ <-- SCF
SCF loop      Energy           Fermi           Energy gain       Timer   <-- SCF
                               energy          per atom          (sec)   <-- SCF
------------------------------------------------------------------------ <-- SCF
Initial  -1.93200496E+004  0.00000000E+000                      5834.52  <-- SCF
      1  -1.93334212E+004  2.32728105E+000   4.95246893E-001    5904.83  <-- SCF
      2  -1.93336975E+004  2.32346729E+000   1.02313740E-002    6009.47  <-- SCF
      3  -1.93465441E+004  9.93101340E-001   4.75802517E-001    6090.23  <-- SCF
      4  -1.93298289E+004  1.79100494E+000  -6.19081842E-001    6176.75  <-- SCF
      5  -1.93284202E+004  1.76665784E+000  -5.21735824E-002    6262.78  <-- SCF
      6  -1.93276173E+004  1.74031352E+000  -2.97388904E-002    6353.25  <-- SCF
      7  -1.93273949E+004  1.60337038E+000  -8.23565799E-003    6439.72  <-- SCF
      8  -1.93267308E+004  1.48365051E+000  -2.45974080E-002    6529.05  <-- SCF
      9  -1.93267228E+004  1.47363261E+000  -2.95914269E-004    6614.57  <-- SCF
     10  -1.93267170E+004  1.48014917E+000  -2.16081185E-004    6698.85  <-- SCF
     11  -1.93266865E+004  1.45950953E+000  -1.12778501E-003    6778.36  <-- SCF
     12  -1.93266696E+004  1.45019743E+000  -6.26299714E-004    6859.18  <-- SCF
     13  -1.93266529E+004  1.44448497E+000  -6.20843463E-004    6939.59  <-- SCF
     14  -1.93266510E+004  1.44408642E+000  -6.72640243E-005    7022.72  <-- SCF
     15  -1.93266486E+004  1.44545586E+000  -9.13464834E-005    7103.50  <-- SCF
     16  -1.93266488E+004  1.44522028E+000   9.84216660E-006    7176.14  <-- SCF
     17  -1.93266487E+004  1.44469470E+000  -3.77850688E-006    7245.26  <-- SCF
     18  -1.93266487E+004  1.44477659E+000   2.99435725E-007    7301.51  <-- SCF
     19  -1.93266487E+004  1.44477443E+000  -2.97029152E-008    7353.76  <-- SCF
     20  -1.93266487E+004  1.44477415E+000  -1.56533813E-008    7405.21  <-- SCF
------------------------------------------------------------------------ <-- SCF
 
Final energy, E             =  -19326.00020415     eV
Final free energy (E-TS)    =  -19326.64874460     eV
(energies not corrected for finite basis set)
 
NB est. 0K energy (E-0.5TS)      =  -19326.32447437     eV
 

 *********************************** Forces ***********************************
 *                                                                            *
 *                        Cartesian components (eV/A)                         *
 * -------------------------------------------------------------------------- *
 *                   x                    y                    z              *
 *                                                                            *
 * O         1      1.39935              1.29936              1.21252         *
 * O         2     -1.24962              1.40613              1.07245         *
 * O         3     -0.01515              0.00000              1.03103         *
 * O         4      1.39935             -1.29936              1.21252         *
 * O         5     -1.24962             -1.40613              1.07245         *
 * O         6     -0.36243              1.23509              0.38063         *
 * O         7      1.30944              0.00000              0.39378         *
 * O         8     -1.13703              0.00000              0.35559         *
 * O         9     -0.36243             -1.23509              0.38063         *
 * O        10      1.51975              1.42268             -1.60619         *
 * O        11     -1.31883              1.47999             -1.38601         *
 * O        12     -0.01724              0.00000             -1.37934         *
 * O        13      1.51975             -1.42268             -1.60619         *
 * O        14     -1.31883             -1.47999             -1.38601         *
 * Mg        1      0.03375              1.81645              2.82653         *
 * Mg        2      1.81836              0.00000              2.75854         *
 * Mg        3     -1.81352              0.00000              2.87707         *
 * Mg        4      0.03375             -1.81645              2.82653         *
 * Mg        5     -2.82161              1.76683             -0.05730         *
 * Mg        6     -2.82161             -1.76683             -0.05730         *
 * Ca        1      2.60351              3.21921             -0.10841         *
 * Ca        2      0.15199              0.00000             -0.30744         *
 * Ca        3      2.60351             -3.21921             -0.10841         *
 * Ca        4      0.04970              3.12197             -2.60566         *
 * Ca        5      3.11889              0.00000             -2.50815         *
 * Ca        6     -3.12289              0.00000             -2.67825         *
 * Ca        7      0.04970             -3.12197             -2.60566         *
 *                                                                            *
 ******************************************************************************

 ***************** Stress Tensor *****************
 *                                               *
 *          Cartesian components (GPa)           *
 * --------------------------------------------- *
 *             x             y             z     *
 *                                               *
 *  x     15.648089      0.000000     -0.099522  *
 *  y      0.000000     16.154171      0.000000  *
 *  z     -0.099522      0.000000     15.176975  *
 *                                               *
 *  Pressure:  -15.6597                          *
 *                                               *
 *************************************************

 *********** Constrained Stress Tensor ***********
 *                                               *
 *          Cartesian components (GPa)           *
 * --------------------------------------------- *
 *             x             y             z     *
 *                                               *
 *  x     15.985421      0.000000      0.000000  *
 *  y      0.000000     15.985421      0.000000  *
 *  z      0.000000      0.000000     15.985421  *
 *                                               *
 *  Pressure:  -15.9854                          *
 *                                               *
 *************************************************
  
 +------------+-------------+-------------+-----------------+ <-- min BFGS
 |    Step    |   lambda    |   F.delta   |    enthalpy     | <-- min BFGS
 +------------+-------------+-------------+-----------------+ <-- min BFGS
 |  previous  |    0.000000 |    0.093867 |   -19324.056539 | <-- min BFGS
 | trial step |    1.000000 |    0.093601 |   -19326.661827 | <-- min BFGS
 +------------+-------------+-------------+-----------------+ <-- min BFGS
  
 BFGS: finished iteration     2 with enthalpy= -1.93266618E+004 eV
  
 +-----------+-----------------+-----------------+------------+-----+ <-- BFGS
 | Parameter |      value      |    tolerance    |    units   | OK? | <-- BFGS
 +-----------+-----------------+-----------------+------------+-----+ <-- BFGS
 |  dE/ion   |   9.649216E-002 |   2.000000E-005 |         eV | No  | <-- BFGS
 |  |F|max   |   4.141663E+000 |   5.000000E-002 |       eV/A | No  | <-- BFGS
 |  |dR|max  |   1.640095E-002 |   1.000000E-003 |          A | No  | <-- BFGS
 |   Smax    |   1.566005E+001 |   1.000000E-001 |        GPa | No  | <-- BFGS
 +-----------+-----------------+-----------------+------------+-----+ <-- BFGS
  

================================================================================
 Starting BFGS iteration          3 ...
================================================================================
  
 +------------+-------------+-------------+-----------------+ <-- min BFGS
 |    Step    |   lambda    |   F.delta   |    enthalpy     | <-- min BFGS
 +------------+-------------+-------------+-----------------+ <-- min BFGS
 |  previous  |    0.000000 |    0.093350 |   -19326.661827 | <-- min BFGS
 +------------+-------------+-------------+-----------------+ <-- min BFGS
  

--------------------------------------------------------------------------------
 BFGS: starting iteration         3 with trial guess (lambda=  1.000000)
--------------------------------------------------------------------------------

                           -------------------------------
                                      Unit Cell
                           -------------------------------
        Real Lattice(A)              Reciprocal Lattice(1/A)
   8.1464782   0.0000000   0.0000000        0.7712763   0.0000000  -0.0000000
   0.0000000   8.1464782   0.0000000        0.0000000   0.7712763   0.0000000
   0.0000000   0.0000000   8.1464782       -0.0000000   0.0000000   0.7712763

                       Lattice parameters(A)       Cell Angles
                    a =    8.146478          alpha =   90.000000
                    b =    8.146478          beta  =   90.000000
                    c =    8.146478          gamma =   90.000000

                Current cell volume =  540.641897 A**3

                           -------------------------------
                                     Cell Contents
                           -------------------------------

            xxxxxxxxxxxxxxxxxxxxxxxxxxxxxxxxxxxxxxxxxxxxxxxxxxxxxxxxxxxx
            x  Element    Atom        Fractional coordinates of atoms  x
            x            Number           u          v          w      x
            x----------------------------------------------------------x
            x  O            1         0.001927   0.001782   0.001733   x
            x  O            2         0.664944   0.001946   0.001474   x
            x  O            3         0.333314   0.333333   0.001444   x
            x  O            4         0.001927   0.664884   0.001733   x
            x  O            5         0.664944   0.664721   0.001474   x
            x  O            6         0.332795   0.001711   0.333895   x
            x  O            7         0.001813   0.333333   0.333914   x
            x  O            8         0.665094   0.333333   0.333860   x
            x  O            9         0.332795   0.664955   0.333895   x
            x  O           10         0.002134   0.001991   0.664404   x
            x  O           11         0.664803   0.002095   0.664767   x
            x  O           12         0.333310   0.333333   0.664745   x
            x  O           13         0.002134   0.664676   0.664404   x
            x  O           14         0.664803   0.664572   0.664767   x
            x  Mg           1         0.333379   0.002468   0.003983   x
            x  Mg           2         0.002471   0.333333   0.003890   x
            x  Mg           3         0.664201   0.333333   0.004050   x
            x  Mg           4         0.333379   0.664198   0.003983   x
            x  Mg           5         0.662689   0.002407   0.333254   x
            x  Mg           6         0.662689   0.664260   0.333254   x
            x  Ca           1         0.003727   0.004668   0.333184   x
            x  Ca           2         0.333534   0.333333   0.332928   x
            x  Ca           3         0.003727   0.661999   0.333184   x
            x  Ca           4         0.333402   0.004537   0.662937   x
            x  Ca           5         0.004532   0.333333   0.663068   x
            x  Ca           6         0.662127   0.333333   0.662842   x
            x  Ca           7         0.333402   0.662129   0.662937   x
            xxxxxxxxxxxxxxxxxxxxxxxxxxxxxxxxxxxxxxxxxxxxxxxxxxxxxxxxxxxx


------------------------------------------------------------------------ <-- SCF
SCF loop      Energy           Fermi           Energy gain       Timer   <-- SCF
                               energy          per atom          (sec)   <-- SCF
------------------------------------------------------------------------ <-- SCF
Initial  -1.93227614E+004  0.00000000E+000                      7626.98  <-- SCF
      1  -1.93358650E+004  2.51441666E+000   4.85318462E-001    7696.76  <-- SCF
      2  -1.93361321E+004  2.51065932E+000   9.89124901E-003    7799.48  <-- SCF
      3  -1.93477288E+004  1.17383281E+000   4.29510256E-001    7879.43  <-- SCF
      4  -1.93320971E+004  2.00382857E+000  -5.78951714E-001    7965.01  <-- SCF
      5  -1.93304891E+004  1.91333559E+000  -5.95568736E-002    8049.57  <-- SCF
      6  -1.93301838E+004  1.91938085E+000  -1.13063358E-002    8136.80  <-- SCF
      7  -1.93294549E+004  1.69440106E+000  -2.69976234E-002    8217.80  <-- SCF
      8  -1.93293480E+004  1.67000654E+000  -3.95708916E-003    8309.97  <-- SCF
      9  -1.93292910E+004  1.65603919E+000  -2.11174969E-003    8391.01  <-- SCF
     10  -1.93293697E+004  1.66470761E+000   2.91216977E-003    8474.17  <-- SCF
     11  -1.93292676E+004  1.63657312E+000  -3.77933669E-003    8551.94  <-- SCF
     12  -1.93292661E+004  1.63196793E+000  -5.59455382E-005    8629.52  <-- SCF
     13  -1.93292576E+004  1.62772512E+000  -3.14002709E-004    8710.26  <-- SCF
     14  -1.93292563E+004  1.62932885E+000  -5.03835521E-005    8786.05  <-- SCF
     15  -1.93292556E+004  1.63033457E+000  -2.34867346E-005    8859.81  <-- SCF
     16  -1.93292557E+004  1.62977911E+000   1.91417426E-006    8934.48  <-- SCF
     17  -1.93292557E+004  1.62969330E+000  -1.08448364E-006    9001.30  <-- SCF
     18  -1.93292556E+004  1.62955806E+000  -3.20364113E-007    9056.21  <-- SCF
     19  -1.93292556E+004  1.62950326E+000   1.88837624E-008    9107.96  <-- SCF
     20  -1.93292556E+004  1.62951461E+000   6.78283783E-009    9158.64  <-- SCF
------------------------------------------------------------------------ <-- SCF
 
Final energy, E             =  -19328.64621380     eV
Final free energy (E-TS)    =  -19329.25564796     eV
(energies not corrected for finite basis set)
 
NB est. 0K energy (E-0.5TS)      =  -19328.95093088     eV
 

 *********************************** Forces ***********************************
 *                                                                            *
 *                        Cartesian components (eV/A)                         *
 * -------------------------------------------------------------------------- *
 *                   x                    y                    z              *
 *                                                                            *
 * O         1      1.45881              1.36208              1.21921         *
 * O         2     -1.30168              1.45620              1.12008         *
 * O         3     -0.01733              0.00000              1.05353         *
 * O         4      1.45881             -1.36208              1.21921         *
 * O         5     -1.30168             -1.45620              1.12008         *
 * O         6     -0.34539              1.27235              0.36464         *
 * O         7      1.34825              0.00000              0.37877         *
 * O         8     -1.16488              0.00000              0.33834         *
 * O         9     -0.34539             -1.27235              0.36464         *
 * O        10      1.55224              1.45856             -1.63581         *
 * O        11     -1.34046              1.49935             -1.45040         *
 * O        12     -0.01843              0.00000             -1.41441         *
 * O        13      1.55224             -1.45856             -1.63581         *
 * O        14     -1.34046             -1.49935             -1.45040         *
 * Mg        1      0.03559              1.91241              2.87349         *
 * Mg        2      1.91404              0.00000              2.80169         *
 * Mg        3     -1.90902              0.00000              2.92774         *
 * Mg        4      0.03559             -1.91241              2.87349         *
 * Mg        5     -2.86760              1.85485             -0.06031         *
 * Mg        6     -2.86760             -1.85485             -0.06031         *
 * Ca        1      2.59921              3.17877             -0.11425         *
 * Ca        2      0.16483              0.00000             -0.33458         *
 * Ca        3      2.59921             -3.17877             -0.11425         *
 * Ca        4      0.05218              3.07427             -2.60249         *
 * Ca        5      3.07144              0.00000             -2.49771         *
 * Ca        6     -3.07466              0.00000             -2.68170         *
 * Ca        7      0.05218             -3.07427             -2.60249         *
 *                                                                            *
 ******************************************************************************

 ***************** Stress Tensor *****************
 *                                               *
 *          Cartesian components (GPa)           *
 * --------------------------------------------- *
 *             x             y             z     *
 *                                               *
 *  x     15.780304      0.000000     -0.109446  *
 *  y      0.000000     16.289272      0.000000  *
 *  z     -0.109446      0.000000     15.307104  *
 *                                               *
 *  Pressure:  -15.7922                          *
 *                                               *
 *************************************************

 *********** Constrained Stress Tensor ***********
 *                                               *
 *          Cartesian components (GPa)           *
 * --------------------------------------------- *
 *             x             y             z     *
 *                                               *
 *  x     16.120036      0.000000      0.000000  *
 *  y      0.000000     16.120036      0.000000  *
 *  z      0.000000      0.000000     16.120036  *
 *                                               *
 *  Pressure:  -16.1200                          *
 *                                               *
 *************************************************
  
 +------------+-------------+-------------+-----------------+ <-- min BFGS
 |    Step    |   lambda    |   F.delta   |    enthalpy     | <-- min BFGS
 +------------+-------------+-------------+-----------------+ <-- min BFGS
 |  previous  |    0.000000 |    0.093350 |   -19326.661827 | <-- min BFGS
 | trial step |    1.000000 |    0.092624 |   -19329.242753 | <-- min BFGS
 +------------+-------------+-------------+-----------------+ <-- min BFGS
  
 BFGS: finished iteration     3 with enthalpy= -1.93292428E+004 eV
  
 +-----------+-----------------+-----------------+------------+-----+ <-- BFGS
 | Parameter |      value      |    tolerance    |    units   | OK? | <-- BFGS
 +-----------+-----------------+-----------------+------------+-----+ <-- BFGS
 |  dE/ion   |   9.558986E-002 |   2.000000E-005 |         eV | No  | <-- BFGS
 |  |F|max   |   4.107739E+000 |   5.000000E-002 |       eV/A | No  | <-- BFGS
 |  |dR|max  |   1.597305E-002 |   1.000000E-003 |          A | No  | <-- BFGS
 |   Smax    |   1.579253E+001 |   1.000000E-001 |        GPa | No  | <-- BFGS
 +-----------+-----------------+-----------------+------------+-----+ <-- BFGS
  

================================================================================
 Starting BFGS iteration          4 ...
================================================================================
  
 +------------+-------------+-------------+-----------------+ <-- min BFGS
 |    Step    |   lambda    |   F.delta   |    enthalpy     | <-- min BFGS
 +------------+-------------+-------------+-----------------+ <-- min BFGS
 |  previous  |    0.000000 |    0.091922 |   -19329.242753 | <-- min BFGS
 +------------+-------------+-------------+-----------------+ <-- min BFGS
  

--------------------------------------------------------------------------------
 BFGS: starting iteration         4 with trial guess (lambda=  1.000000)
--------------------------------------------------------------------------------

                           -------------------------------
                                      Unit Cell
                           -------------------------------
        Real Lattice(A)              Reciprocal Lattice(1/A)
   8.0632978   0.0000000   0.0000000        0.7792327   0.0000000  -0.0000000
   0.0000000   8.0632978   0.0000000        0.0000000   0.7792327   0.0000000
   0.0000000   0.0000000   8.0632978       -0.0000000   0.0000000   0.7792327

                       Lattice parameters(A)       Cell Angles
                    a =    8.063298          alpha =   90.000000
                    b =    8.063298          beta  =   90.000000
                    c =    8.063298          gamma =   90.000000

                Current cell volume =  524.249595 A**3

                           -------------------------------
                                     Cell Contents
                           -------------------------------

            xxxxxxxxxxxxxxxxxxxxxxxxxxxxxxxxxxxxxxxxxxxxxxxxxxxxxxxxxxxx
            x  Element    Atom        Fractional coordinates of atoms  x
            x            Number           u          v          w      x
            x----------------------------------------------------------x
            x  O            1         0.002611   0.002421   0.002304   x
            x  O            2         0.664335   0.002628   0.001999   x
            x  O            3         0.333305   0.333333   0.001938   x
            x  O            4         0.002611   0.664246   0.002304   x
            x  O            5         0.664335   0.664039   0.001999   x
            x  O            6         0.332634   0.002308   0.334066   x
            x  O            7         0.002445   0.333333   0.334091   x
            x  O            8         0.664548   0.333333   0.334018   x
            x  O            9         0.332634   0.664359   0.334066   x
            x  O           10         0.002861   0.002674   0.663637   x
            x  O           11         0.664175   0.002797   0.664087   x
            x  O           12         0.333301   0.333333   0.664082   x
            x  O           13         0.002861   0.663992   0.663637   x
            x  O           14         0.664175   0.663869   0.664087   x
            x  Mg           1         0.333396   0.003365   0.005329   x
            x  Mg           2         0.003368   0.333333   0.005203   x
            x  Mg           3         0.663307   0.333333   0.005422   x
            x  Mg           4         0.333396   0.663302   0.005329   x
            x  Mg           5         0.661346   0.003276   0.333226   x
            x  Mg           6         0.661346   0.663391   0.333226   x
            x  Ca           1         0.004945   0.006157   0.333130   x
            x  Ca           2         0.333611   0.333333   0.332771   x
            x  Ca           3         0.004945   0.660510   0.333130   x
            x  Ca           4         0.333426   0.005978   0.661718   x
            x  Ca           5         0.005972   0.333333   0.661898   x
            x  Ca           6         0.660686   0.333333   0.661585   x
            x  Ca           7         0.333426   0.660689   0.661718   x
            xxxxxxxxxxxxxxxxxxxxxxxxxxxxxxxxxxxxxxxxxxxxxxxxxxxxxxxxxxxx


------------------------------------------------------------------------ <-- SCF
SCF loop      Energy           Fermi           Energy gain       Timer   <-- SCF
                               energy          per atom          (sec)   <-- SCF
------------------------------------------------------------------------ <-- SCF
Initial  -1.93254618E+004  0.00000000E+000                      9379.18  <-- SCF
      1  -1.93382083E+004  2.70211193E+000   4.72094163E-001    9447.81  <-- SCF
      2  -1.93384655E+004  2.69844802E+000   9.52415119E-003    9550.04  <-- SCF
      3  -1.93488724E+004  1.35141854E+000   3.85440211E-001    9628.54  <-- SCF
      4  -1.93342718E+004  2.21889139E+000  -5.40762312E-001    9710.77  <-- SCF
      5  -1.93327626E+004  2.08123857E+000  -5.58944606E-002    9794.07  <-- SCF
      6  -1.93327063E+004  2.10394460E+000  -2.08633409E-003    9878.89  <-- SCF
      7  -1.93319206E+004  1.86890372E+000  -2.90995123E-002    9957.93  <-- SCF
      8  -1.93318917E+004  1.85782773E+000  -1.07073908E-003   10048.20  <-- SCF
      9  -1.93318372E+004  1.84566849E+000  -2.01720426E-003   10128.69  <-- SCF
     10  -1.93318937E+004  1.83948728E+000   2.09103176E-003   10211.96  <-- SCF
     11  -1.93318230E+004  1.82915641E+000  -2.61691086E-003   10288.99  <-- SCF
     12  -1.93318179E+004  1.82321263E+000  -1.90576968E-004   10365.56  <-- SCF
     13  -1.93318122E+004  1.81888428E+000  -2.11259800E-004   10444.14  <-- SCF
     14  -1.93318110E+004  1.81907666E+000  -4.46318769E-005   10519.25  <-- SCF
     15  -1.93318101E+004  1.82027093E+000  -3.27918186E-005   10592.81  <-- SCF
     16  -1.93318101E+004  1.81996182E+000  -8.52964056E-007   10664.66  <-- SCF
     17  -1.93318101E+004  1.82001486E+000  -5.05388274E-007   10730.70  <-- SCF
     18  -1.93318101E+004  1.81991810E+000   7.80093378E-008   10783.26  <-- SCF
     19  -1.93318101E+004  1.81994781E+000  -1.71435685E-008   10834.15  <-- SCF
------------------------------------------------------------------------ <-- SCF
 
Final energy, E             =  -19331.23378149     eV
Final free energy (E-TS)    =  -19331.81006690     eV
(energies not corrected for finite basis set)
 
NB est. 0K energy (E-0.5TS)      =  -19331.52192420     eV
 

 *********************************** Forces ***********************************
 *                                                                            *
 *                        Cartesian components (eV/A)                         *
 * -------------------------------------------------------------------------- *
 *                   x                    y                    z              *
 *                                                                            *
 * O         1      1.52231              1.42892              1.21648         *
 * O         2     -1.35791              1.51009              1.17421         *
 * O         3     -0.01957              0.00000              1.07466         *
 * O         4      1.52231             -1.42892              1.21648         *
 * O         5     -1.35791             -1.51009              1.17421         *
 * O         6     -0.32371              1.30829              0.34500         *
 * O         7      1.38327              0.00000              0.35887         *
 * O         8     -1.19648              0.00000              0.31865         *
 * O         9     -0.32371             -1.30829              0.34500         *
 * O        10      1.57826              1.48906             -1.65717         *
 * O        11     -1.35469              1.51263             -1.52080         *
 * O        12     -0.01938              0.00000             -1.45193         *
 * O        13      1.57826             -1.48906             -1.65717         *
 * O        14     -1.35469             -1.51263             -1.52080         *
 * Mg        1      0.03821              2.00639              2.91656         *
 * Mg        2      2.00806              0.00000              2.84063         *
 * Mg        3     -2.00248              0.00000              2.97523         *
 * Mg        4      0.03821             -2.00639              2.91656         *
 * Mg        5     -2.90914              1.94114             -0.06402         *
 * Mg        6     -2.90914             -1.94114             -0.06402         *
 * Ca        1      2.58620              3.13086             -0.11994         *
 * Ca        2      0.17961              0.00000             -0.36324         *
 * Ca        3      2.58620             -3.13086             -0.11994         *
 * Ca        4      0.05477              3.01864             -2.58996         *
 * Ca        5      3.01640              0.00000             -2.47697         *
 * Ca        6     -3.01801              0.00000             -2.67660         *
[...]
 *                   x                    y                    z              *
 *                                                                            *
 * O         1      2.15565              2.07948              0.72956         *
 * O         2     -1.80673              1.86928              1.77371         *
 * O         3      0.04104              0.00000              0.56736         *
 * O         4      2.15565             -2.07948              0.72956         *
 * O         5     -1.80673             -1.86928              1.77371         *
 * O         6      0.36753              0.77388             -0.43522         *
 * O         7      0.91863              0.00000             -0.41899         *
 * O         8     -0.66613              0.00000             -0.44210         *
 * O         9      0.36753             -0.77388             -0.43522         *
 * O        10      1.27673              1.18441             -1.37387         *
 * O        11     -0.93975              1.02818             -2.48039         *
 * O        12      0.06066              0.00000             -1.07613         *
 * O        13      1.27673             -1.18441             -1.37387         *
 * O        14     -0.93975             -1.02818             -2.48039         *
 * Mg        1      0.10938              1.82784              1.83803         *
 * Mg        2      1.88517              0.00000              1.72966         *
 * Mg        3     -1.76591              0.00000              1.97156         *
 * Mg        4      0.10938             -1.82784              1.83803         *
 * Mg        5     -1.92699              1.66022             -0.15233         *
 * Mg        6     -1.92699             -1.66022             -0.15233         *
 * Ca        1      0.29840              0.56339             -0.25178         *
 * Ca        2      0.10089              0.00000             -0.19711         *
 * Ca        3      0.29840             -0.56339             -0.25178         *
 * Ca        4      0.10596              0.47165             -0.35335         *
 * Ca        5      0.53960              0.00000             -0.21266         *
 * Ca        6     -0.39431              0.00000             -0.51033         *
 * Ca        7      0.10596             -0.47165             -0.35335         *
 *                                                                            *
 ******************************************************************************

 ***************** Stress Tensor *****************
 *                                               *
 *          Cartesian components (GPa)           *
 * --------------------------------------------- *
 *             x             y             z     *
 *                                               *
 *  x     -0.293871      0.000000     -0.082505  *
 *  y      0.000000     -0.417553      0.000000  *
 *  z     -0.082505      0.000000      0.289632  *
 *                                               *
 *  Pressure:    0.1406                          *
 *                                               *
 *************************************************

 *********** Constrained Stress Tensor ***********
 *                                               *
 *          Cartesian components (GPa)           *
 * --------------------------------------------- *
 *             x             y             z     *
 *                                               *
 *  x     -0.140440      0.000000     -0.000000  *
 *  y      0.000000     -0.140440      0.000000  *
 *  z     -0.000000      0.000000     -0.140440  *
 *                                               *
 *  Pressure:    0.1404                          *
 *                                               *
 *************************************************
  
 +------------+-------------+-------------+-----------------+ <-- min BFGS
 |    Step    |   lambda    |   F.delta   |    enthalpy     | <-- min BFGS
 +------------+-------------+-------------+-----------------+ <-- min BFGS
 |  previous  |    0.000000 |    0.012403 |   -19360.736175 | <-- min BFGS
 | trial step |    1.000000 |    0.012169 |   -19361.070375 | <-- min BFGS
 +------------+-------------+-------------+-----------------+ <-- min BFGS
  
 BFGS: finished iteration    30 with enthalpy= -1.93610704E+004 eV
  
 +-----------+-----------------+-----------------+------------+-----+ <-- BFGS
 | Parameter |      value      |    tolerance    |    units   | OK? | <-- BFGS
 +-----------+-----------------+-----------------+------------+-----+ <-- BFGS
 |  dE/ion   |   1.237776E-002 |   2.000000E-005 |         eV | No  | <-- BFGS
 |  |F|max   |   3.147145E+000 |   5.000000E-002 |       eV/A | No  | <-- BFGS
 |  |dR|max  |   9.192764E-003 |   1.000000E-003 |          A | No  | <-- BFGS
 |   Smax    |   1.404623E-001 |   1.000000E-001 |        GPa | No  | <-- BFGS
 +-----------+-----------------+-----------------+------------+-----+ <-- BFGS
  
 BFGS : WARNING - Geometry optimization failed to converge after         30 steps

================================================================================
 BFGS : Final Configuration:
================================================================================

                           -------------------------------
                                      Unit Cell
                           -------------------------------
        Real Lattice(A)              Reciprocal Lattice(1/A)
   7.0939520   0.0000000   0.0000000        0.8857102   0.0000000  -0.0000000
   0.0000000   7.0939520   0.0000000        0.0000000   0.8857102   0.0000000
   0.0000000   0.0000000   7.0939520       -0.0000000   0.0000000   0.8857102

                       Lattice parameters(A)       Cell Angles
                    a =    7.093952          alpha =   90.000000
                    b =    7.093952          beta  =   90.000000
                    c =    7.093952          gamma =   90.000000

                Current cell volume =  356.997137 A**3

                           -------------------------------
                                     Cell Contents
                           -------------------------------

            xxxxxxxxxxxxxxxxxxxxxxxxxxxxxxxxxxxxxxxxxxxxxxxxxxxxxxxxxxxx
            x  Element    Atom        Fractional coordinates of atoms  x
            x            Number           u          v          w      x
            x----------------------------------------------------------x
            x  O            1         0.025321   0.024322   0.013587   x
            x  O            2         0.644645   0.023394   0.020618   x
            x  O            3         0.333134   0.333333   0.012335   x
            x  O            4         0.025321   0.642345   0.013587   x
            x  O            5         0.644645   0.643272   0.020618   x
            x  O            6         0.334088   0.015819   0.332603   x
            x  O            7         0.017194   0.333333   0.332861   x
            x  O            8         0.652606   0.333333   0.332292   x
            x  O            9         0.334088   0.650847   0.332603   x
            x  O           10         0.020117   0.019134   0.645593   x
            x  O           11         0.650370   0.017791   0.639358   x
            x  O           12         0.333314   0.333333   0.648107   x
            x  O           13         0.020117   0.647532   0.645593   x
            x  O           14         0.650370   0.648876   0.639358   x
            x  Mg           1         0.334263   0.028487   0.034316   x
            x  Mg           2         0.028654   0.333333   0.032955   x
            x  Mg           3         0.638429   0.333333   0.035718   x
            x  Mg           4         0.334263   0.638180   0.034316   x
            x  Mg           5         0.631934   0.026975   0.331873   x
            x  Mg           6         0.631934   0.639691   0.331873   x
            x  Ca           1         0.021357   0.026215   0.330813   x
            x  Ca           2         0.336289   0.333333   0.327433   x
            x  Ca           3         0.021357   0.640452   0.330813   x
            x  Ca           4         0.334440   0.024419   0.645168   x
            x  Ca           5         0.024684   0.333333   0.647178   x
            x  Ca           6         0.642624   0.333333   0.643262   x
            x  Ca           7         0.334440   0.642247   0.645168   x
            xxxxxxxxxxxxxxxxxxxxxxxxxxxxxxxxxxxxxxxxxxxxxxxxxxxxxxxxxxxx


 BFGS : Final Enthalpy     = -1.93610704E+004 eV
 BFGS : Final <frequency>  unchanged from initial value
 BFGS : Final bulk modulus unchanged from initial value
  
  **********************************************************
  *** There were at least     1 warnings during this run ***
  *** => please check the whole of this file carefully!  ***
  **********************************************************

 ***************************** Symmetrised Forces *****************************
 *                                                                            *
 *                        Cartesian components (eV/A)                         *
 * -------------------------------------------------------------------------- *
 *                   x                    y                    z              *
 *                                                                            *
 * O         1      2.15565              2.07948              0.72956         *
 * O         2     -1.80673              1.86928              1.77371         *
 * O         3      0.04104              0.00000              0.56736         *
 * O         4      2.15565             -2.07948              0.72956         *
 * O         5     -1.80673             -1.86928              1.77371         *
 * O         6      0.36753              0.77388             -0.43522         *
 * O         7      0.91863              0.00000             -0.41899         *
 * O         8     -0.66613              0.00000             -0.44210         *
 * O         9      0.36753             -0.77388             -0.43522         *
 * O        10      1.27673              1.18441             -1.37387         *
 * O        11     -0.93975              1.02818             -2.48039         *
 * O        12      0.06066              0.00000             -1.07613         *
 * O        13      1.27673             -1.18441             -1.37387         *
 * O        14     -0.93975             -1.02818             -2.48039         *
 * Mg        1      0.10938              1.82784              1.83803         *
 * Mg        2      1.88517              0.00000              1.72966         *
 * Mg        3     -1.76591              0.00000              1.97156         *
 * Mg        4      0.10938             -1.82784              1.83803         *
 * Mg        5     -1.92699              1.66022             -0.15233         *
 * Mg        6     -1.92699             -1.66022             -0.15233         *
 * Ca        1      0.29840              0.56339             -0.25178         *
 * Ca        2      0.10089              0.00000             -0.19711         *
 * Ca        3      0.29840             -0.56339             -0.25178         *
 * Ca        4      0.10596              0.47165             -0.35335         *
 * Ca        5      0.53960              0.00000             -0.21266         *
 * Ca        6     -0.39431              0.00000             -0.51033         *
 * Ca        7      0.10596             -0.47165             -0.35335         *
 *                                                                            *
 ******************************************************************************

 *********** Symmetrised Stress Tensor ***********
 *                                               *
 *          Cartesian components (GPa)           *
 * --------------------------------------------- *
 *             x             y             z     *
 *                                               *
 *  x     -0.140462      0.000000     -0.000000  *
 *  y      0.000000     -0.140462      0.000000  *
 *  z     -0.000000      0.000000     -0.140462  *
 *                                               *
 *  Pressure:    0.1405                          *
 *                                               *
 *************************************************

 Pseudo atomic calculation performed for O 2s2 2p4

 Converged in 30 iterations to a total energy of -432.5600 eV


 Pseudo atomic calculation performed for Mg 2p6 3s2

 Converged in 23 iterations to a total energy of -1024.6674 eV


 Pseudo atomic calculation performed for Ca 3s2 3p6 4s2

 Converged in 24 iterations to a total energy of -1000.4575 eV

Charge spilling parameter for spin component 1 = 0.33%

     Atomic Populations (Mulliken)
     -----------------------------
Species   Ion     s      p      d      f     Total  Charge (e)
==============================================================
  O        1     1.92   4.78   0.00   0.00   6.71    -0.71
  O        2     1.93   4.79   0.00   0.00   6.72    -0.72
  O        3     1.87   5.07   0.00   0.00   6.93    -0.93
  O        4     1.92   4.78   0.00   0.00   6.71    -0.71
  O        5     1.93   4.79   0.00   0.00   6.72    -0.72
  O        6     1.86   5.03   0.00   0.00   6.89    -0.89
  O        7     1.86   5.00   0.00   0.00   6.86    -0.86
  O        8     1.86   5.05   0.00   0.00   6.91    -0.91
  O        9     1.86   5.03   0.00   0.00   6.89    -0.89
  O       10     1.92   4.76   0.00   0.00   6.67    -0.67
  O       11     1.92   4.77   0.00   0.00   6.69    -0.69
  O       12     1.86   4.97   0.00   0.00   6.83    -0.83
  O       13     1.92   4.76   0.00   0.00   6.67    -0.67
  O       14     1.92   4.77   0.00   0.00   6.69    -0.69
  Mg       1     0.55   6.75   0.00   0.00   7.30     0.70
  Mg       2     0.54   6.78   0.00   0.00   7.32     0.68
  Mg       3     0.56   6.72   0.00   0.00   7.28     0.72
  Mg       4     0.55   6.75   0.00   0.00   7.30     0.70
  Mg       5     0.53   6.78   0.00   0.00   7.31     0.69
  Mg       6     0.53   6.78   0.00   0.00   7.31     0.69
  Ca       1     2.16   5.97   0.90   0.00   9.03     0.97
  Ca       2     2.21   5.99   0.87   0.00   9.07     0.93
  Ca       3     2.16   5.97   0.90   0.00   9.03     0.97
  Ca       4     2.17   5.97   0.90   0.00   9.04     0.96
  Ca       5     2.18   5.97   0.90   0.00   9.05     0.95
  Ca       6     2.17   5.97   0.89   0.00   9.03     0.97
  Ca       7     2.17   5.97   0.90   0.00   9.04     0.96
==============================================================

            Bond              Population      Length (A)
============================================================
         O 8  -- Mg 3              0.28        2.10628
         O 9  -- Mg 6              0.28        2.11440
         O 6  -- Mg 5              0.28        2.11440
         O 9  -- Mg 4              0.28        2.11794
         O 6  -- Mg 1              0.28        2.11794
         O 7  -- Mg 2              0.29        2.12907
         O 3  -- Mg 2              0.27        2.16491
         O 3  -- Mg 1              0.28        2.16820
         O 3  -- Mg 4              0.28        2.16820
         O 3  -- Mg 3              0.28        2.17209
         O 8  -- Mg 5              0.28        2.17823
         O 8  -- Mg 6              0.28        2.17823
         O 7  -- Ca 1              0.21        2.17893
         O 7  -- Ca 3              0.21        2.17893
         O 14 -- Mg 6              0.44        2.18617
         O 11 -- Mg 5              0.44        2.18617
         O 12 -- Ca 5              0.21        2.18942
         O 12 -- Ca 4              0.21        2.19153
         O 12 -- Ca 7              0.21        2.19153
         O 12 -- Ca 6              0.21        2.19450
         O 1  -- Mg 2              0.41        2.19654
         O 4  -- Mg 2              0.41        2.19654
         O 4  -- Mg 4              0.42        2.19675
         O 1  -- Mg 1              0.42        2.19675
         O 2  -- Mg 3              0.40        2.20174
         O 5  -- Mg 3              0.40        2.20174
         O 5  -- Mg 4              0.39        2.20427
         O 2  -- Mg 1              0.39        2.20427
         O 8  -- Ca 6              0.24        2.20714
         O 5  -- Mg 6              0.39        2.21001
         O 2  -- Mg 5              0.39        2.21001
         O 9  -- Ca 7              0.24        2.21816
         O 6  -- Ca 4              0.24        2.21816
         O 9  -- Ca 3              0.24        2.21976
         O 6  -- Ca 1              0.24        2.21976
         O 10 -- Ca 5              0.21        2.22918
         O 13 -- Ca 5              0.21        2.22918
         O 13 -- Ca 7              0.23        2.23010
         O 10 -- Ca 4              0.23        2.23010
         O 7  -- Ca 5              0.24        2.23038
         O 10 -- Ca 1              0.24        2.23361
         O 13 -- Ca 3              0.24        2.23361
         O 3  -- Ca 2              0.11        2.23540
         O 11 -- Ca 6              0.21        2.23929
         O 14 -- Ca 6              0.21        2.23929
         O 14 -- Ca 7              0.20        2.24206
         O 11 -- Ca 4              0.20        2.24206
         O 8  -- Ca 2              0.11        2.24420
         O 4  -- Ca 3              0.19        2.25060
         O 1  -- Ca 1              0.19        2.25060
         O 6  -- Ca 2              0.12        2.25278
         O 9  -- Ca 2              0.12        2.25278
         O 7  -- Ca 2              0.11        2.26397
         O 12 -- Ca 2              0.11        2.27495
         O 3  -- O 12             -0.08        2.58382
         O 7  -- O 8              -0.08        2.58637
         O 6  -- O 9              -0.08        2.58909
         O 4  -- O 13             -0.03        2.61106
         O 1  -- O 10             -0.03        2.61106
         O 11 -- O 14             -0.03        2.61706
         O 13 -- O 14             -0.03        2.62336
         O 10 -- O 11             -0.03        2.62336
         O 10 -- O 13             -0.03        2.63613
         O 2  -- O 5              -0.04        2.69657
         O 4  -- O 5              -0.04        2.70097
         O 1  -- O 2              -0.04        2.70097
         O 5  -- O 14             -0.03        2.70524
         O 2  -- O 11             -0.03        2.70524
         O 1  -- O 4              -0.04        2.70972
         Ca 5 -- Ca 6             -0.16        2.71046
         Ca 4 -- Ca 7             -0.18        2.71111
         Ca 1 -- Ca 3             -0.20        2.73658
         Mg 2 -- Ca 5             -0.32        2.73683
         Mg 5 -- Mg 6             -0.47        2.74737
         Mg 4 -- Ca 7             -0.34        2.76075
         Mg 1 -- Ca 4             -0.34        2.76075
         Mg 6 -- Ca 3             -0.36        2.76256
         Mg 5 -- Ca 1             -0.36        2.76256
         Mg 2 -- Mg 3             -0.53        2.76831
         Mg 1 -- Mg 4             -0.53        2.76882
         Mg 3 -- Ca 6             -0.37        2.78423
         Mg 3 -- Ca 2             -0.07        2.97934
         Mg 4 -- Mg 6             -0.29        2.98579
         Mg 1 -- Mg 5             -0.29        2.98579
============================================================


Writing model to test_9.check

Writing analysis data to test_9.castep_bin
 
 A BibTeX formatted list of references used in this run has been written to 
 test_9.bib
 
Initialisation time =     28.24 s
Calculation time    =  37376.91 s
Finalisation time   =      2.68 s
Total time          =  37407.83 s
Peak Memory Use     = 1444468 kB
  
Overall parallel efficiency rating: Excellent (99%)                             
  
Data was distributed by:-
k-point (2-way); efficiency rating: Ideal (100%)                                
