 +-------------------------------------------------+
 |                                                 |
 |      CCC   AA    SSS  TTTTT  EEEEE  PPPP        |
 |     C     A  A  S       T    E      P   P       |
 |     C     AAAA   SS     T    EEE    PPPP        |
 |     C     A  A     S    T    E      P           |
 |      CCC  A  A  SSS     T    EEEEE  P           |
 |                                                 |
 +-------------------------------------------------+
 |                                                 |
 | Welcome to Academic Release CASTEP version 9.0  |
 | Ab Initio Total Energy Program                  |
 |                                                 |
 | Authors:                                        |
 | M. Segall, M. Probert, C. Pickard, P. Hasnip,   |
 | S. Clark, K. Refson, J. R. Yates, M. Payne      |
 |                                                 |
 | Contributors:                                   |
 | P. Lindan, P. Haynes, J. White, V. Milman,      |
 | N. Govind, M. Gibson, P. Tulip, V. Cocula,      |
 | B. Montanari, D. Quigley, M. Glover,            |
 | L. Bernasconi, A. Perlov, M. Plummer,           |
 | E. McNellis, J. Meyer, J. Gale, D. Jochym       |
 | J. Aarons, B. Walker, R. Gillen, D. Jones       |
 | T. Green, I. J. Bush, C. J. Armstrong,          |
 | E. J. Higgins, M. D. Hodgson                    |
 |                                                 |
 | Copyright (c) 2000 - 2015                       |
 |                                                 |
 |     Distributed under the terms of an           |
 |     Agreement between the United Kingdom        |
 |     Car-Parrinello (UKCP) Consortium,           |
 |     Daresbury Laboratory and Accelrys, Inc.     |
 |                                                 |
 | Please cite                                     |
 |                                                 |
 |     "First principles methods using CASTEP"     |
 |                                                 |
 |         Zeitschrift fuer Kristallographie       |
 |           220(5-6) pp. 567-570 (2005)           |
 |                                                 |
 | S. J. Clark, M. D. Segall, C. J. Pickard,       |
 | P. J. Hasnip, M. J. Probert, K. Refson,         |
 | M. C. Payne                                     |
 |                                                 |
 |       in all publications arising from          |
 |              your use of CASTEP                 |
 |                                                 |
 +-------------------------------------------------+
 
 
 Compiled for linux_x86_64_ifort12 on Fri, 09 Oct 2015 16:14:59 +0100
 from code version 01cdeb6dcbec+  Thu, 01 Oct 2015 17:06:55 +0100
 Compiler: Intel Fortran 12.1.5.339; Optimisation: fast
 MATHLIBS: Intel MKL(11.0.5) (LAPACK version 3.4.1)
 FFT Lib : default
 Fundamental constants values: CODATA 2010
 
 Run started: Sun, 01 May 2016 21:29:49 +0100
 +-------------------------------------------------+
 |                                                 |
 |      CCC   AA    SSS  TTTTT  EEEEE  PPPP        |
 |     C     A  A  S       T    E      P   P       |
 |     C     AAAA   SS     T    EEE    PPPP        |
 |     C     A  A     S    T    E      P           |
 |      CCC  A  A  SSS     T    EEEEE  P           |
 |                                                 |
 +-------------------------------------------------+
 |                                                 |
 | Welcome to Academic Release CASTEP version 9.0  |
 | Ab Initio Total Energy Program                  |
 |                                                 |
 | Authors:                                        |
 | M. Segall, M. Probert, C. Pickard, P. Hasnip,   |
 | S. Clark, K. Refson, J. R. Yates, M. Payne      |
 |                                                 |
 | Contributors:                                   |
 | P. Lindan, P. Haynes, J. White, V. Milman,      |
 | N. Govind, M. Gibson, P. Tulip, V. Cocula,      |
 | B. Montanari, D. Quigley, M. Glover,            |
 | L. Bernasconi, A. Perlov, M. Plummer,           |
 | E. McNellis, J. Meyer, J. Gale, D. Jochym       |
 | J. Aarons, B. Walker, R. Gillen, D. Jones       |
 | T. Green, I. J. Bush, C. J. Armstrong,          |
 | E. J. Higgins, M. D. Hodgson                    |
 |                                                 |
 | Copyright (c) 2000 - 2015                       |
 |                                                 |
 |     Distributed under the terms of an           |
 |     Agreement between the United Kingdom        |
 |     Car-Parrinello (UKCP) Consortium,           |
 |     Daresbury Laboratory and Accelrys, Inc.     |
 |                                                 |
 | Please cite                                     |
 |                                                 |
 |     "First principles methods using CASTEP"     |
 |                                                 |
 |         Zeitschrift fuer Kristallographie       |
 |           220(5-6) pp. 567-570 (2005)           |
 |                                                 |
 | S. J. Clark, M. D. Segall, C. J. Pickard,       |
 | P. J. Hasnip, M. J. Probert, K. Refson,         |
 | M. C. Payne                                     |
 |                                                 |
 |       in all publications arising from          |
 |              your use of CASTEP                 |
 |                                                 |
 +-------------------------------------------------+
 
 
 Compiled for linux_x86_64_ifort12 on Fri, 09 Oct 2015 16:14:59 +0100
 from code version 01cdeb6dcbec+  Thu, 01 Oct 2015 17:06:55 +0100
 Compiler: Intel Fortran 12.1.5.339; Optimisation: fast
 MATHLIBS: Intel MKL(11.0.5) (LAPACK version 3.4.1)
 FFT Lib : default
 Fundamental constants values: CODATA 2010
 
 Run started: Sun, 01 May 2016 21:33:54 +0100
 
 Atomic calculation performed for O: 1s2 2s2 2p4
 
 Converged in 60 iterations to an ae energy of -2027.926 eV
 
   ============================================================                
   | Pseudopotential Report - Date of generation  1-05-2016   |                
   ------------------------------------------------------------                
   | Element: O Ionic charge:  6.00 Level of theory: LDA      |                
   | Atomic Solver: Koelling-Harmon                           |                
   |                                                          |                
   |               Reference Electronic Structure             |                
   |         Orbital         Occupation         Energy        |                
   |            2s              2.000           -0.873        |                
   |            2p              4.000           -0.338        |                
   |                                                          |                
   |                 Pseudopotential Definition               |                
   |        Beta     l      e      Rc     scheme   norm       |                
   |          1      0   -0.873   1.100     qc      0         |                
   |          2      0    0.250   1.100     qc      0         |                
   |          3      1   -0.338   1.100     qc      0         |                
   |          4      1    0.250   1.100     qc      0         |                
   |         loc     2    0.000   1.100     pn      0         |                
   |                                                          |                
   | Augmentation charge Rinner = 0.769                       |                
   | Partial core correction Rc = 0.769                       |                
   ------------------------------------------------------------                
   | "2|1.1|15|18|20|20:21(qc=7)"                             |                
   ------------------------------------------------------------                
   |      Author: Chris J. Pickard, Cambridge University      |                
   ============================================================                
 
 Atomic calculation performed for Mg: 1s2 2s2 2p6 3s2
 
 Converged in 47 iterations to an ae energy of -5427.407 eV
 
   ============================================================                
   | Pseudopotential Report - Date of generation  1-05-2016   |                
   ------------------------------------------------------------                
   | Element: Mg Ionic charge: 10.00 Level of theory: LDA     |                
   | Atomic Solver: Koelling-Harmon                           |                
   |                                                          |                
   |               Reference Electronic Structure             |                
   |         Orbital         Occupation         Energy        |                
   |            2s              2.000           -2.914        |                
   |            2p              6.000           -1.717        |                
   |            3s              2.000           -0.176        |                
   |                                                          |                
   |                 Pseudopotential Definition               |                
   |        Beta     l      e      Rc     scheme   norm       |                
   |          1      0   -2.914   1.804     qc      0         |                
   |          2      0   -0.176   1.804     qc      0         |                
   |          3      0    0.250   1.804     qc      0         |                
   |          4      1   -1.717   1.804     qc      0         |                
   |          5      1    0.250   1.804     qc      0         |                
   |          6      2    0.000   1.804     qc      0         |                
   |          7      2    0.250   1.804     qc      0         |                
   |         loc     3    0.000   1.804     pn      0         |                
   |                                                          |                
   | Augmentation charge Rinner = 1.261                       |                
   | Partial core correction Rc = 1.261                       |                
   ------------------------------------------------------------                
   | "3|1.8|7|8|9|20U:30:21:32"                               |                
   ------------------------------------------------------------                
   |      Author: Chris J. Pickard, Cambridge University      |                
   ============================================================                
 
 Atomic calculation performed for Ca: 1s2 2s2 2p6 3s2 3p6 4s2
 
 Converged in 44 iterations to an ae energy of -18468.059 eV
 
   ============================================================                
   | Pseudopotential Report - Date of generation  1-05-2016   |                
   ------------------------------------------------------------                
   | Element: Ca Ionic charge: 10.00 Level of theory: LDA     |                
   | Atomic Solver: Koelling-Harmon                           |                
   |                                                          |                
   |               Reference Electronic Structure             |                
   |         Orbital         Occupation         Energy        |                
   |            3s              2.000           -1.721        |                
   |            3p              6.000           -1.028        |                
   |            4s              2.000           -0.142        |                
   |                                                          |                
   |                 Pseudopotential Definition               |                
   |        Beta     l      e      Rc     scheme   norm       |                
   |          1      0   -1.721   2.005     qc      0         |                
   |          2      0   -0.142   2.005     qc      0         |                
   |          3      0    0.250   2.005     qc      0         |                
   |          4      1   -1.028   2.005     qc      0         |                
   |          5      1    0.250   2.005     qc      0         |                
   |          6      2    0.000   2.005     qc      0         |                
   |          7      2    0.250   2.005     qc      0         |                
   |         loc     3    0.000   2.005     pn      0         |                
   |                                                          |                
   | Augmentation charge Rinner = 1.401                       |                
   | Partial core correction Rc = 1.401                       |                
   ------------------------------------------------------------                
   | "3|2.0|7|8|9|30U:40:31:32"                               |                
   ------------------------------------------------------------                
   |      Author: Chris J. Pickard, Cambridge University      |                
   ============================================================                
 
 Pseudo atomic calculation performed for O 2s2 2p4
 
 Converged in 28 iterations to a total energy of -424.4682 eV
 
 
 Pseudo atomic calculation performed for Mg 2s2 2p6 3s2
 
 Converged in 19 iterations to a total energy of -1684.3182 eV
 
 
 Pseudo atomic calculation performed for Ca 3s2 3p6 4s2
 
 Converged in 24 iterations to a total energy of -1001.5365 eV
 
 Calculation not parallelised.

 ************************************ Title ************************************
 MgO

 ***************************** General Parameters ******************************
  
 output verbosity                               : normal  (1)
 write checkpoint data to                       : 1.check
 type of calculation                            : single point energy
 stress calculation                             : on
 density difference calculation                 : off
 electron localisation func (ELF) calculation   : off
 Hirshfeld analysis                             : off
 unlimited duration calculation
 timing information                             : on
 memory usage estimate                          : on
 write final potential to formatted file        : off
 write final density to formatted file          : off
 write BibTeX reference list                    : on
 write OTFG pseudopotential files               : on
 checkpoint writing                             : both castep_bin and check files
  
 output         length unit                     : A
 output           mass unit                     : amu
 output           time unit                     : ps
 output         charge unit                     : e
 output           spin unit                     : hbar/2
 output         energy unit                     : eV
 output          force unit                     : eV/A
 output       velocity unit                     : A/ps
 output       pressure unit                     : GPa
 output     inv_length unit                     : 1/A
 output      frequency unit                     : cm-1
 output force constant unit                     : eV/A**2
 output         volume unit                     : A**3
 output   IR intensity unit                     : (D/A)**2/amu
 output         dipole unit                     : D
 output         efield unit                     : eV/A/e
 output        entropy unit                     : J/mol/K
  
 wavefunctions paging                           : none
 random number generator seed                   : randomised (213408462)
 data distribution                              : optimal for this architecture
 optimization strategy                          : maximize speed(+++)

 *********************** Exchange-Correlation Parameters ***********************
  
 using functional                               : Local Density Approximation
 relativistic treatment                         : Koelling-Harmon
 DFT+D: Semi-empirical dispersion correction    : off

 ************************* Pseudopotential Parameters **************************
  
 pseudopotential representation                 : reciprocal space
 <beta|phi> representation                      : reciprocal space
 spin-orbit coupling                            : off

 **************************** Basis Set Parameters *****************************
  
 plane wave basis set cut-off                   :   280.0000   eV
 size of standard grid                          :     2.0000
 size of   fine   gmax                          :    17.1454   1/A
 finite basis set correction                    : automatic
 number of sample energies                      :          3
           sample  spacing                      :     5.0000   eV

 **************************** Electronic Parameters ****************************
  
 number of  electrons                           :  384.0    
 net charge of system                           :  0.000    
 treating system as non-spin-polarized
 number of bands                                :        230

 ********************* Electronic Minimization Parameters **********************
  
 Method: Treating system as metallic with density mixing treatment of electrons,
         and number of  SD  steps               :          1
         and number of  CG  steps               :          4
  
 total energy / atom convergence tol.           : 0.1000E-06   eV
 eigen-energy convergence tolerance             : 0.2500E-07   eV
 max force / atom convergence tol.              : ignored
 convergence tolerance window                   :          3   cycles
 max. number of SCF cycles                      :         60
 number of fixed-spin iterations                :         10
 smearing scheme                                : Gaussian
 smearing width                                 : 0.2000       eV
 Fermi energy convergence tolerance             : 0.2721E-13   eV
 periodic dipole correction                     : NONE

 ************************** Density Mixing Parameters **************************
  
 density-mixing scheme                          : Pulay
 max. length of mixing history                  :         30
 charge density mixing amplitude                : 0.8000    
 cut-off energy for mixing                      :  280.0       eV

 *********************** Population Analysis Parameters ************************
  
 Population analysis with cutoff                :  3.000       A

 *******************************************************************************
  
 
                           -------------------------------
                                      Unit Cell
                           -------------------------------
        Real Lattice(A)                      Reciprocal Lattice(1/A)
   4.2000000   0.0000000   0.0000000        1.4959965   0.0000000   0.0000000
   0.0000000  12.6000000   0.0000000        0.0000000   0.4986655   0.0000000
   0.0000000   0.0000000  21.0000000        0.0000000   0.0000000   0.2991993
 
                       Lattice parameters(A)       Cell Angles
                    a =    4.200000          alpha =   90.000000
                    b =   12.600000          beta  =   90.000000
                    c =   21.000000          gamma =   90.000000
 
                       Current cell volume = 1111.320000       A**3
 
                           -------------------------------
                                     Cell Contents
                           -------------------------------
                         Total number of ions in cell =   48
                      Total number of species in cell =    3
                        Max number of any one species =   24
 
            xxxxxxxxxxxxxxxxxxxxxxxxxxxxxxxxxxxxxxxxxxxxxxxxxxxxxxxxxxxx
            x  Element    Atom        Fractional coordinates of atoms  x
            x            Number           u          v          w      x
            x----------------------------------------------------------x
            x  O            1         0.000000   0.000000   0.000000   x 
            x  O            2         1.000000   0.333333   0.000000   x 
            x  O            3         0.000000   0.666667   0.000000   x 
            x  O            4         1.000000   1.000000   0.000000   x 
            x  O            5         1.000000   0.000000   0.200000   x 
            x  O            6         0.000000   0.333333   0.200000   x 
            x  O            7         1.000000   0.666667   0.200000   x 
            x  O            8         0.000000   1.000000   0.200000   x 
            x  O            9         0.000000   0.000000   0.400000   x 
            x  O           10         1.000000   0.333333   0.400000   x 
            x  O           11         0.000000   0.666667   0.400000   x 
            x  O           12         1.000000   1.000000   0.400000   x 
            x  O           13         1.000000   0.000000   0.600000   x 
            x  O           14         0.000000   0.333333   0.600000   x 
            x  O           15         1.000000   0.666667   0.600000   x 
            x  O           16         0.000000   1.000000   0.600000   x 
            x  O           17         0.000000   0.000000   0.800000   x 
            x  O           18         1.000000   0.333333   0.800000   x 
            x  O           19         0.000000   0.666667   0.800000   x 
            x  O           20         1.000000   1.000000   0.800000   x 
            x  O           21         1.000000   0.000000   1.000000   x 
            x  O           22         0.000000   0.333333   1.000000   x 
            x  O           23         1.000000   0.666667   1.000000   x 
            x  O           24         0.000000   1.000000   1.000000   x 
            x  Mg           1         1.000000   0.000000   0.000000   x 
            x  Mg           2         0.000000   0.333333   0.000000   x 
            x  Mg           3         1.000000   0.666667   0.000000   x 
            x  Mg           4         0.000000   1.000000   0.000000   x 
            x  Mg           5         0.000000   0.000000   0.200000   x 
            x  Mg           6         1.000000   0.333333   0.200000   x 
            x  Mg           7         0.000000   0.666667   0.200000   x 
            x  Mg           8         1.000000   1.000000   0.200000   x 
            x  Mg           9         1.000000   0.000000   0.400000   x 
            x  Mg          10         0.000000   0.333333   0.400000   x 
            x  Mg          11         1.000000   0.666667   0.400000   x 
            x  Mg          12         0.000000   1.000000   0.400000   x 
            x  Mg          13         0.000000   0.000000   0.600000   x 
            x  Mg          14         1.000000   0.333333   0.600000   x 
            x  Mg          15         0.000000   0.666667   0.600000   x 
            x  Mg          16         1.000000   1.000000   0.600000   x 
            x  Ca           1         1.000000   0.000000   0.800000   x 
            x  Ca           2         0.000000   0.333333   0.800000   x 
            x  Ca           3         1.000000   0.666667   0.800000   x 
            x  Ca           4         0.000000   1.000000   0.800000   x 
            x  Ca           5         0.000000   0.000000   1.000000   x 
            x  Ca           6         1.000000   0.333333   1.000000   x 
            x  Ca           7         0.000000   0.666667   1.000000   x 
            x  Ca           8         1.000000   1.000000   1.000000   x 
            xxxxxxxxxxxxxxxxxxxxxxxxxxxxxxxxxxxxxxxxxxxxxxxxxxxxxxxxxxxx
 
       **********  Atom Position W A R N I N G: Overlapping atoms! *********
       *                                                                   *
       *   Atoms: O    1 and O    4 are VERY close: distance= 0.000 Bohr   *
       *   Atoms: O    1 and O   21 are VERY close: distance= 0.000 Bohr   *
       *   Atoms: O    1 and O   24 are VERY close: distance= 0.000 Bohr   *
       *   Atoms: O    1 and Mg   1 are VERY close: distance= 0.000 Bohr   *
       *   Atoms: O    1 and Mg   4 are VERY close: distance= 0.000 Bohr   *
       *   Atoms: O    1 and Ca   5 are VERY close: distance= 0.000 Bohr   *
       *   Atoms: O    1 and Ca   8 are VERY close: distance= 0.000 Bohr   *
       *   Atoms: O    2 and O   22 are VERY close: distance= 0.000 Bohr   *
       *   Atoms: O    2 and Mg   2 are VERY close: distance= 0.000 Bohr   *
       *   Atoms: O    2 and Ca   6 are VERY close: distance= 0.000 Bohr   *
       *   Atoms: O    3 and O   23 are VERY close: distance= 0.000 Bohr   *
       *   Atoms: O    3 and Mg   3 are VERY close: distance= 0.000 Bohr   *
       *   Atoms: O    3 and Ca   7 are VERY close: distance= 0.000 Bohr   *
       *   Atoms: O    4 and O   21 are VERY close: distance= 0.000 Bohr   *
       *   Atoms: O    4 and O   24 are VERY close: distance= 0.000 Bohr   *
       *   Atoms: O    4 and Mg   1 are VERY close: distance= 0.000 Bohr   *
       *   Atoms: O    4 and Mg   4 are VERY close: distance= 0.000 Bohr   *
       *   Atoms: O    4 and Ca   5 are VERY close: distance= 0.000 Bohr   *
       *   Atoms: O    4 and Ca   8 are VERY close: distance= 0.000 Bohr   *
       *   Atoms: O    5 and O    8 are VERY close: distance= 0.000 Bohr   *
       *   Atoms: O    5 and Mg   5 are VERY close: distance= 0.000 Bohr   *
       *   Atoms: O    5 and Mg   8 are VERY close: distance= 0.000 Bohr   *
       *   Atoms: O    6 and Mg   6 are VERY close: distance= 0.000 Bohr   *
       *   Atoms: O    7 and Mg   7 are VERY close: distance= 0.000 Bohr   *
       *   Atoms: O    8 and Mg   5 are VERY close: distance= 0.000 Bohr   *
       *   Atoms: O    8 and Mg   8 are VERY close: distance= 0.000 Bohr   *
       *   Atoms: O    9 and O   12 are VERY close: distance= 0.000 Bohr   *
       *   Atoms: O    9 and Mg   9 are VERY close: distance= 0.000 Bohr   *
       *   Atoms: O    9 and Mg  12 are VERY close: distance= 0.000 Bohr   *
       *   Atoms: O   10 and Mg  10 are VERY close: distance= 0.000 Bohr   *
       *   Atoms: O   11 and Mg  11 are VERY close: distance= 0.000 Bohr   *
       *   Atoms: O   12 and Mg   9 are VERY close: distance= 0.000 Bohr   *
       *   Atoms: O   12 and Mg  12 are VERY close: distance= 0.000 Bohr   *
       *   Atoms: O   13 and O   16 are VERY close: distance= 0.000 Bohr   *
       *   Atoms: O   13 and Mg  13 are VERY close: distance= 0.000 Bohr   *
       *   Atoms: O   13 and Mg  16 are VERY close: distance= 0.000 Bohr   *
       *   Atoms: O   14 and Mg  14 are VERY close: distance= 0.000 Bohr   *
       *   Atoms: O   15 and Mg  15 are VERY close: distance= 0.000 Bohr   *
       *   Atoms: O   16 and Mg  13 are VERY close: distance= 0.000 Bohr   *
       *   Atoms: O   16 and Mg  16 are VERY close: distance= 0.000 Bohr   *
       *   Atoms: O   17 and O   20 are VERY close: distance= 0.000 Bohr   *
       *   Atoms: O   17 and Ca   1 are VERY close: distance= 0.000 Bohr   *
       *   Atoms: O   17 and Ca   4 are VERY close: distance= 0.000 Bohr   *
       *   Atoms: O   18 and Ca   2 are VERY close: distance= 0.000 Bohr   *
       *   Atoms: O   19 and Ca   3 are VERY close: distance= 0.000 Bohr   *
       *   Atoms: O   20 and Ca   1 are VERY close: distance= 0.000 Bohr   *
       *   Atoms: O   20 and Ca   4 are VERY close: distance= 0.000 Bohr   *
       *   Atoms: O   21 and O   24 are VERY close: distance= 0.000 Bohr   *
       *   Atoms: O   21 and Mg   1 are VERY close: distance= 0.000 Bohr   *
       *   Atoms: O   21 and Mg   4 are VERY close: distance= 0.000 Bohr   *
       *   Atoms: O   21 and Ca   5 are VERY close: distance= 0.000 Bohr   *
       *   Atoms: O   21 and Ca   8 are VERY close: distance= 0.000 Bohr   *
       *   Atoms: O   22 and Mg   2 are VERY close: distance= 0.000 Bohr   *
       *   Atoms: O   22 and Ca   6 are VERY close: distance= 0.000 Bohr   *
       *   Atoms: O   23 and Mg   3 are VERY close: distance= 0.000 Bohr   *
       *   Atoms: O   23 and Ca   7 are VERY close: distance= 0.000 Bohr   *
       *   Atoms: O   24 and Mg   1 are VERY close: distance= 0.000 Bohr   *
       *   Atoms: O   24 and Mg   4 are VERY close: distance= 0.000 Bohr   *
       *   Atoms: O   24 and Ca   5 are VERY close: distance= 0.000 Bohr   *
       *   Atoms: O   24 and Ca   8 are VERY close: distance= 0.000 Bohr   *
       *   Atoms: Mg   1 and Mg   4 are VERY close: distance= 0.000 Bohr   *
       *   Atoms: Mg   1 and Ca   5 are VERY close: distance= 0.000 Bohr   *
       *   Atoms: Mg   1 and Ca   8 are VERY close: distance= 0.000 Bohr   *
       *   Atoms: Mg   2 and Ca   6 are VERY close: distance= 0.000 Bohr   *
       *   Atoms: Mg   3 and Ca   7 are VERY close: distance= 0.000 Bohr   *
       *   Atoms: Mg   4 and Ca   5 are VERY close: distance= 0.000 Bohr   *
       *   Atoms: Mg   4 and Ca   8 are VERY close: distance= 0.000 Bohr   *
       *   Atoms: Mg   5 and Mg   8 are VERY close: distance= 0.000 Bohr   *
       *   Atoms: Mg   9 and Mg  12 are VERY close: distance= 0.000 Bohr   *
       *   Atoms: Mg  13 and Mg  16 are VERY close: distance= 0.000 Bohr   *
       *   Atoms: Ca   1 and Ca   4 are VERY close: distance= 0.000 Bohr   *
       *   Atoms: Ca   5 and Ca   8 are VERY close: distance= 0.000 Bohr   *
       *                                                                   *
       *********************************************************************
 
                         No user defined ionic velocities
 
                           -------------------------------
                                   Details of Species
                           -------------------------------
 
                               Mass of species in AMU
                                    O   15.9994000
                                    Mg   24.3050000
                                    Ca   40.0780000
 
                          Electric Quadrupole Moment (Barn)
                                    O   -0.0255800 Isotope 17
                                    Mg    0.1994000 Isotope 25
                                    Ca   -0.0408000 Isotope 43
 
                          Files used for pseudopotentials:
                                    O 2|1.1|15|18|20|20:21(qc=7)
                                    Mg 3|1.8|7|8|9|20U:30:21:32
                                    Ca 3|2.0|7|8|9|30U:40:31:32
 
                           -------------------------------
                              k-Points For BZ Sampling
                           -------------------------------
                       MP grid size for SCF calculation is  3  3  3
                            with an offset of   0.000  0.000  0.000
                       Number of kpoints used =            14
 
                           -------------------------------
                               Symmetry and Constraints
                           -------------------------------
 
                      Cell is a supercell containing 4 primitive cells
                      Maximum deviation from symmetry =  0.00000         ANG
 
         There are no symmetry operations specified or generated for this cell
                      Number of ionic constraints     =           3
                      Point group of crystal =     1: C1, 1, 1
                      Space group of crystal =     0: , 
 
 
                         Centre of mass is constrained
             Set iprint > 1 for details of linear ionic constraints
 
                         Number of cell constraints= 3
                         Cell constraints are:  1 2 3 0 0 0
 
                         External pressure/stress (GPa)
                          0.00000   0.00000   0.00000
                                    0.00000   0.00000
                                              0.00000
  
+---------------- MEMORY AND SCRATCH DISK ESTIMATES PER PROCESS --------------+
|                                                     Memory          Disk    |
| Baseline code, static data and system overhead      176.0 MB         0.0 MB |
| BLAS internal memory storage                          0.0 MB         0.0 MB |
| Model and support data                             1551.5 MB         0.0 MB |
| Electronic energy minimisation requirements        1313.6 MB         0.0 MB |
| Force calculation requirements                       26.9 MB         0.0 MB |
| Stress calculation requirements                      31.6 MB         0.0 MB |
|                                               ----------------------------- |
| Approx. total storage required per process         3041.1 MB         0.0 MB |
|                                                                             |
| Requirements will fluctuate during execution and may exceed these estimates |
+-----------------------------------------------------------------------------+
Calculating finite basis set correction with  3 cut-off energies.
Calculating total energy with cut-off of  270.000eV.
------------------------------------------------------------------------ <-- SCF
SCF loop      Energy           Fermi           Energy gain       Timer   <-- SCF
                               energy          per atom          (sec)   <-- SCF
------------------------------------------------------------------------ <-- SCF
Initial  -1.55751398E+005  0.00000000E+000                        48.36  <-- SCF
 +-------------------------------------------------+
 |                                                 |
 |      CCC   AA    SSS  TTTTT  EEEEE  PPPP        |
 |     C     A  A  S       T    E      P   P       |
 |     C     AAAA   SS     T    EEE    PPPP        |
 |     C     A  A     S    T    E      P           |
 |      CCC  A  A  SSS     T    EEEEE  P           |
 |                                                 |
 +-------------------------------------------------+
 |                                                 |
 | Welcome to Academic Release CASTEP version 9.0  |
 | Ab Initio Total Energy Program                  |
 |                                                 |
 | Authors:                                        |
 | M. Segall, M. Probert, C. Pickard, P. Hasnip,   |
 | S. Clark, K. Refson, J. R. Yates, M. Payne      |
 |                                                 |
 | Contributors:                                   |
 | P. Lindan, P. Haynes, J. White, V. Milman,      |
 | N. Govind, M. Gibson, P. Tulip, V. Cocula,      |
 | B. Montanari, D. Quigley, M. Glover,            |
 | L. Bernasconi, A. Perlov, M. Plummer,           |
 | E. McNellis, J. Meyer, J. Gale, D. Jochym       |
 | J. Aarons, B. Walker, R. Gillen, D. Jones       |
 | T. Green, I. J. Bush, C. J. Armstrong,          |
 | E. J. Higgins, M. D. Hodgson                    |
 |                                                 |
 | Copyright (c) 2000 - 2015                       |
 |                                                 |
 |     Distributed under the terms of an           |
 |     Agreement between the United Kingdom        |
 |     Car-Parrinello (UKCP) Consortium,           |
 |     Daresbury Laboratory and Accelrys, Inc.     |
 |                                                 |
 | Please cite                                     |
 |                                                 |
 |     "First principles methods using CASTEP"     |
 |                                                 |
 |         Zeitschrift fuer Kristallographie       |
 |           220(5-6) pp. 567-570 (2005)           |
 |                                                 |
 | S. J. Clark, M. D. Segall, C. J. Pickard,       |
 | P. J. Hasnip, M. J. Probert, K. Refson,         |
 | M. C. Payne                                     |
 |                                                 |
 |       in all publications arising from          |
 |              your use of CASTEP                 |
 |                                                 |
 +-------------------------------------------------+
 
 
 Compiled for linux_x86_64_ifort12 on Fri, 09 Oct 2015 16:14:59 +0100
 from code version 01cdeb6dcbec+  Thu, 01 Oct 2015 17:06:55 +0100
 Compiler: Intel Fortran 12.1.5.339; Optimisation: fast
 MATHLIBS: Intel MKL(11.0.5) (LAPACK version 3.4.1)
 FFT Lib : default
 Fundamental constants values: CODATA 2010
 
 Run started: Sun, 01 May 2016 21:40:40 +0100
 
 Atomic calculation performed for O: 1s2 2s2 2p4
 
 Converged in 60 iterations to an ae energy of -2027.926 eV
 
   ============================================================                
   | Pseudopotential Report - Date of generation  1-05-2016   |                
   ------------------------------------------------------------                
   | Element: O Ionic charge:  6.00 Level of theory: LDA      |                
   | Atomic Solver: Koelling-Harmon                           |                
   |                                                          |                
   |               Reference Electronic Structure             |                
   |         Orbital         Occupation         Energy        |                
   |            2s              2.000           -0.873        |                
   |            2p              4.000           -0.338        |                
   |                                                          |                
   |                 Pseudopotential Definition               |                
   |        Beta     l      e      Rc     scheme   norm       |                
   |          1      0   -0.873   1.100     qc      0         |                
   |          2      0    0.250   1.100     qc      0         |                
   |          3      1   -0.338   1.100     qc      0         |                
   |          4      1    0.250   1.100     qc      0         |                
   |         loc     2    0.000   1.100     pn      0         |                
   |                                                          |                
   | Augmentation charge Rinner = 0.769                       |                
   | Partial core correction Rc = 0.769                       |                
   ------------------------------------------------------------                
   | "2|1.1|15|18|20|20:21(qc=7)"                             |                
   ------------------------------------------------------------                
   |      Author: Chris J. Pickard, Cambridge University      |                
   ============================================================                
 
 Atomic calculation performed for Mg: 1s2 2s2 2p6 3s2
 
 Converged in 47 iterations to an ae energy of -5427.407 eV
 
   ============================================================                
   | Pseudopotential Report - Date of generation  1-05-2016   |                
   ------------------------------------------------------------                
   | Element: Mg Ionic charge: 10.00 Level of theory: LDA     |                
   | Atomic Solver: Koelling-Harmon                           |                
   |                                                          |                
   |               Reference Electronic Structure             |                
   |         Orbital         Occupation         Energy        |                
   |            2s              2.000           -2.914        |                
   |            2p              6.000           -1.717        |                
   |            3s              2.000           -0.176        |                
   |                                                          |                
   |                 Pseudopotential Definition               |                
   |        Beta     l      e      Rc     scheme   norm       |                
   |          1      0   -2.914   1.804     qc      0         |                
   |          2      0   -0.176   1.804     qc      0         |                
   |          3      0    0.250   1.804     qc      0         |                
   |          4      1   -1.717   1.804     qc      0         |                
   |          5      1    0.250   1.804     qc      0         |                
   |          6      2    0.000   1.804     qc      0         |                
   |          7      2    0.250   1.804     qc      0         |                
   |         loc     3    0.000   1.804     pn      0         |                
   |                                                          |                
   | Augmentation charge Rinner = 1.261                       |                
   | Partial core correction Rc = 1.261                       |                
   ------------------------------------------------------------                
   | "3|1.8|7|8|9|20U:30:21:32"                               |                
   ------------------------------------------------------------                
   |      Author: Chris J. Pickard, Cambridge University      |                
   ============================================================                
 
 Atomic calculation performed for Ca: 1s2 2s2 2p6 3s2 3p6 4s2
 
 Converged in 44 iterations to an ae energy of -18468.059 eV
 
   ============================================================                
   | Pseudopotential Report - Date of generation  1-05-2016   |                
   ------------------------------------------------------------                
   | Element: Ca Ionic charge: 10.00 Level of theory: LDA     |                
   | Atomic Solver: Koelling-Harmon                           |                
   |                                                          |                
   |               Reference Electronic Structure             |                
   |         Orbital         Occupation         Energy        |                
   |            3s              2.000           -1.721        |                
   |            3p              6.000           -1.028        |                
   |            4s              2.000           -0.142        |                
   |                                                          |                
   |                 Pseudopotential Definition               |                
   |        Beta     l      e      Rc     scheme   norm       |                
   |          1      0   -1.721   2.005     qc      0         |                
   |          2      0   -0.142   2.005     qc      0         |                
   |          3      0    0.250   2.005     qc      0         |                
   |          4      1   -1.028   2.005     qc      0         |                
   |          5      1    0.250   2.005     qc      0         |                
   |          6      2    0.000   2.005     qc      0         |                
   |          7      2    0.250   2.005     qc      0         |                
   |         loc     3    0.000   2.005     pn      0         |                
   |                                                          |                
   | Augmentation charge Rinner = 1.401                       |                
   | Partial core correction Rc = 1.401                       |                
   ------------------------------------------------------------                
   | "3|2.0|7|8|9|30U:40:31:32"                               |                
   ------------------------------------------------------------                
   |      Author: Chris J. Pickard, Cambridge University      |                
   ============================================================                
 
 Pseudo atomic calculation performed for O 2s2 2p4
 
 Converged in 28 iterations to a total energy of -424.4682 eV
 
 
 Pseudo atomic calculation performed for Mg 2s2 2p6 3s2
 
 Converged in 19 iterations to a total energy of -1684.3182 eV
 
 
 Pseudo atomic calculation performed for Ca 3s2 3p6 4s2
 
 Converged in 24 iterations to a total energy of -1001.5365 eV
 
 Calculation not parallelised.

 ************************************ Title ************************************
 MgO

 ***************************** General Parameters ******************************
  
 output verbosity                               : normal  (1)
 write checkpoint data to                       : 1.check
 type of calculation                            : single point energy
 stress calculation                             : on
 density difference calculation                 : off
 electron localisation func (ELF) calculation   : off
 Hirshfeld analysis                             : off
 unlimited duration calculation
 timing information                             : on
 memory usage estimate                          : on
 write final potential to formatted file        : off
 write final density to formatted file          : off
 write BibTeX reference list                    : on
 write OTFG pseudopotential files               : on
 checkpoint writing                             : both castep_bin and check files
  
 output         length unit                     : A
 output           mass unit                     : amu
 output           time unit                     : ps
 output         charge unit                     : e
 output           spin unit                     : hbar/2
 output         energy unit                     : eV
 output          force unit                     : eV/A
 output       velocity unit                     : A/ps
 output       pressure unit                     : GPa
 output     inv_length unit                     : 1/A
 output      frequency unit                     : cm-1
 output force constant unit                     : eV/A**2
 output         volume unit                     : A**3
 output   IR intensity unit                     : (D/A)**2/amu
 output         dipole unit                     : D
 output         efield unit                     : eV/A/e
 output        entropy unit                     : J/mol/K
  
 wavefunctions paging                           : none
 random number generator seed                   : randomised (214055027)
 data distribution                              : optimal for this architecture
 optimization strategy                          : maximize speed(+++)

 *********************** Exchange-Correlation Parameters ***********************
  
 using functional                               : Local Density Approximation
 relativistic treatment                         : Koelling-Harmon
 DFT+D: Semi-empirical dispersion correction    : off

 ************************* Pseudopotential Parameters **************************
  
 pseudopotential representation                 : reciprocal space
 <beta|phi> representation                      : reciprocal space
 spin-orbit coupling                            : off

 **************************** Basis Set Parameters *****************************
  
 plane wave basis set cut-off                   :   280.0000   eV
 size of standard grid                          :     2.0000
 size of   fine   gmax                          :    17.1454   1/A
 finite basis set correction                    : automatic
 number of sample energies                      :          3
           sample  spacing                      :     5.0000   eV

 **************************** Electronic Parameters ****************************
  
 number of  electrons                           :  384.0    
 net charge of system                           :  0.000    
 treating system as non-spin-polarized
 number of bands                                :        230

 ********************* Electronic Minimization Parameters **********************
  
 Method: Treating system as metallic with density mixing treatment of electrons,
         and number of  SD  steps               :          1
         and number of  CG  steps               :          4
  
 total energy / atom convergence tol.           : 0.1000E-06   eV
 eigen-energy convergence tolerance             : 0.2500E-07   eV
 max force / atom convergence tol.              : ignored
 convergence tolerance window                   :          3   cycles
 max. number of SCF cycles                      :         60
 number of fixed-spin iterations                :         10
 smearing scheme                                : Gaussian
 smearing width                                 : 0.2000       eV
 Fermi energy convergence tolerance             : 0.2721E-13   eV
 periodic dipole correction                     : NONE

 ************************** Density Mixing Parameters **************************
  
 density-mixing scheme                          : Pulay
 max. length of mixing history                  :         30
 charge density mixing amplitude                : 0.8000    
 cut-off energy for mixing                      :  280.0       eV

 *********************** Population Analysis Parameters ************************
  
 Population analysis with cutoff                :  3.000       A

 *******************************************************************************
  
 
                           -------------------------------
                                      Unit Cell
                           -------------------------------
        Real Lattice(A)                      Reciprocal Lattice(1/A)
  21.0000000   0.0000000   0.0000000        0.2991993   0.0000000   0.0000000
   0.0000000  21.0000000   0.0000000        0.0000000   0.2991993   0.0000000
   0.0000000   0.0000000  21.0000000        0.0000000   0.0000000   0.2991993
 
                       Lattice parameters(A)       Cell Angles
                    a =   21.000000          alpha =   90.000000
                    b =   21.000000          beta  =   90.000000
                    c =   21.000000          gamma =   90.000000
 
                       Current cell volume = 9261.000000       A**3
 
                           -------------------------------
                                     Cell Contents
                           -------------------------------
                         Total number of ions in cell =   48
                      Total number of species in cell =    3
                        Max number of any one species =   24
 
            xxxxxxxxxxxxxxxxxxxxxxxxxxxxxxxxxxxxxxxxxxxxxxxxxxxxxxxxxxxx
            x  Element    Atom        Fractional coordinates of atoms  x
            x            Number           u          v          w      x
            x----------------------------------------------------------x
            x  O            1         0.000000   0.000000   0.000000   x 
            x  O            2         1.000000   0.333333   0.000000   x 
            x  O            3         0.000000   0.666667   0.000000   x 
            x  O            4         1.000000   1.000000   0.000000   x 
            x  O            5         1.000000   0.000000   0.200000   x 
            x  O            6         0.000000   0.333333   0.200000   x 
            x  O            7         1.000000   0.666667   0.200000   x 
            x  O            8         0.000000   1.000000   0.200000   x 
            x  O            9         0.000000   0.000000   0.400000   x 
            x  O           10         1.000000   0.333333   0.400000   x 
            x  O           11         0.000000   0.666667   0.400000   x 
            x  O           12         1.000000   1.000000   0.400000   x 
            x  O           13         1.000000   0.000000   0.600000   x 
            x  O           14         0.000000   0.333333   0.600000   x 
            x  O           15         1.000000   0.666667   0.600000   x 
            x  O           16         0.000000   1.000000   0.600000   x 
            x  O           17         0.000000   0.000000   0.800000   x 
            x  O           18         1.000000   0.333333   0.800000   x 
            x  O           19         0.000000   0.666667   0.800000   x 
            x  O           20         1.000000   1.000000   0.800000   x 
            x  O           21         1.000000   0.000000   1.000000   x 
            x  O           22         0.000000   0.333333   1.000000   x 
            x  O           23         1.000000   0.666667   1.000000   x 
            x  O           24         0.000000   1.000000   1.000000   x 
            x  Mg           1         1.000000   0.000000   0.000000   x 
            x  Mg           2         0.000000   0.333333   0.000000   x 
            x  Mg           3         1.000000   0.666667   0.000000   x 
            x  Mg           4         0.000000   1.000000   0.000000   x 
            x  Mg           5         0.000000   0.000000   0.200000   x 
            x  Mg           6         1.000000   0.333333   0.200000   x 
            x  Mg           7         0.000000   0.666667   0.200000   x 
            x  Mg           8         1.000000   1.000000   0.200000   x 
            x  Mg           9         1.000000   0.000000   0.400000   x 
            x  Mg          10         0.000000   0.333333   0.400000   x 
            x  Mg          11         1.000000   0.666667   0.400000   x 
            x  Mg          12         0.000000   1.000000   0.400000   x 
            x  Mg          13         0.000000   0.000000   0.600000   x 
            x  Mg          14         1.000000   0.333333   0.600000   x 
            x  Mg          15         0.000000   0.666667   0.600000   x 
            x  Mg          16         1.000000   1.000000   0.600000   x 
            x  Ca           1         1.000000   0.000000   0.800000   x 
            x  Ca           2         0.000000   0.333333   0.800000   x 
            x  Ca           3         1.000000   0.666667   0.800000   x 
            x  Ca           4         0.000000   1.000000   0.800000   x 
            x  Ca           5         0.000000   0.000000   1.000000   x 
            x  Ca           6         1.000000   0.333333   1.000000   x 
            x  Ca           7         0.000000   0.666667   1.000000   x 
            x  Ca           8         1.000000   1.000000   1.000000   x 
            xxxxxxxxxxxxxxxxxxxxxxxxxxxxxxxxxxxxxxxxxxxxxxxxxxxxxxxxxxxx
 
       **********  Atom Position W A R N I N G: Overlapping atoms! *********
       *                                                                   *
       *   Atoms: O    1 and O    4 are VERY close: distance= 0.000 Bohr   *
       *   Atoms: O    1 and O   21 are VERY close: distance= 0.000 Bohr   *
       *   Atoms: O    1 and O   24 are VERY close: distance= 0.000 Bohr   *
       *   Atoms: O    1 and Mg   1 are VERY close: distance= 0.000 Bohr   *
       *   Atoms: O    1 and Mg   4 are VERY close: distance= 0.000 Bohr   *
       *   Atoms: O    1 and Ca   5 are VERY close: distance= 0.000 Bohr   *
       *   Atoms: O    1 and Ca   8 are VERY close: distance= 0.000 Bohr   *
       *   Atoms: O    2 and O   22 are VERY close: distance= 0.000 Bohr   *
       *   Atoms: O    2 and Mg   2 are VERY close: distance= 0.000 Bohr   *
       *   Atoms: O    2 and Ca   6 are VERY close: distance= 0.000 Bohr   *
       *   Atoms: O    3 and O   23 are VERY close: distance= 0.000 Bohr   *
       *   Atoms: O    3 and Mg   3 are VERY close: distance= 0.000 Bohr   *
       *   Atoms: O    3 and Ca   7 are VERY close: distance= 0.000 Bohr   *
       *   Atoms: O    4 and O   21 are VERY close: distance= 0.000 Bohr   *
       *   Atoms: O    4 and O   24 are VERY close: distance= 0.000 Bohr   *
       *   Atoms: O    4 and Mg   1 are VERY close: distance= 0.000 Bohr   *
       *   Atoms: O    4 and Mg   4 are VERY close: distance= 0.000 Bohr   *
       *   Atoms: O    4 and Ca   5 are VERY close: distance= 0.000 Bohr   *
       *   Atoms: O    4 and Ca   8 are VERY close: distance= 0.000 Bohr   *
       *   Atoms: O    5 and O    8 are VERY close: distance= 0.000 Bohr   *
       *   Atoms: O    5 and Mg   5 are VERY close: distance= 0.000 Bohr   *
       *   Atoms: O    5 and Mg   8 are VERY close: distance= 0.000 Bohr   *
       *   Atoms: O    6 and Mg   6 are VERY close: distance= 0.000 Bohr   *
       *   Atoms: O    7 and Mg   7 are VERY close: distance= 0.000 Bohr   *
       *   Atoms: O    8 and Mg   5 are VERY close: distance= 0.000 Bohr   *
       *   Atoms: O    8 and Mg   8 are VERY close: distance= 0.000 Bohr   *
       *   Atoms: O    9 and O   12 are VERY close: distance= 0.000 Bohr   *
       *   Atoms: O    9 and Mg   9 are VERY close: distance= 0.000 Bohr   *
       *   Atoms: O    9 and Mg  12 are VERY close: distance= 0.000 Bohr   *
       *   Atoms: O   10 and Mg  10 are VERY close: distance= 0.000 Bohr   *
       *   Atoms: O   11 and Mg  11 are VERY close: distance= 0.000 Bohr   *
       *   Atoms: O   12 and Mg   9 are VERY close: distance= 0.000 Bohr   *
       *   Atoms: O   12 and Mg  12 are VERY close: distance= 0.000 Bohr   *
       *   Atoms: O   13 and O   16 are VERY close: distance= 0.000 Bohr   *
       *   Atoms: O   13 and Mg  13 are VERY close: distance= 0.000 Bohr   *
       *   Atoms: O   13 and Mg  16 are VERY close: distance= 0.000 Bohr   *
       *   Atoms: O   14 and Mg  14 are VERY close: distance= 0.000 Bohr   *
       *   Atoms: O   15 and Mg  15 are VERY close: distance= 0.000 Bohr   *
       *   Atoms: O   16 and Mg  13 are VERY close: distance= 0.000 Bohr   *
       *   Atoms: O   16 and Mg  16 are VERY close: distance= 0.000 Bohr   *
       *   Atoms: O   17 and O   20 are VERY close: distance= 0.000 Bohr   *
       *   Atoms: O   17 and Ca   1 are VERY close: distance= 0.000 Bohr   *
       *   Atoms: O   17 and Ca   4 are VERY close: distance= 0.000 Bohr   *
       *   Atoms: O   18 and Ca   2 are VERY close: distance= 0.000 Bohr   *
       *   Atoms: O   19 and Ca   3 are VERY close: distance= 0.000 Bohr   *
       *   Atoms: O   20 and Ca   1 are VERY close: distance= 0.000 Bohr   *
       *   Atoms: O   20 and Ca   4 are VERY close: distance= 0.000 Bohr   *
       *   Atoms: O   21 and O   24 are VERY close: distance= 0.000 Bohr   *
       *   Atoms: O   21 and Mg   1 are VERY close: distance= 0.000 Bohr   *
       *   Atoms: O   21 and Mg   4 are VERY close: distance= 0.000 Bohr   *
       *   Atoms: O   21 and Ca   5 are VERY close: distance= 0.000 Bohr   *
       *   Atoms: O   21 and Ca   8 are VERY close: distance= 0.000 Bohr   *
       *   Atoms: O   22 and Mg   2 are VERY close: distance= 0.000 Bohr   *
       *   Atoms: O   22 and Ca   6 are VERY close: distance= 0.000 Bohr   *
       *   Atoms: O   23 and Mg   3 are VERY close: distance= 0.000 Bohr   *
       *   Atoms: O   23 and Ca   7 are VERY close: distance= 0.000 Bohr   *
       *   Atoms: O   24 and Mg   1 are VERY close: distance= 0.000 Bohr   *
       *   Atoms: O   24 and Mg   4 are VERY close: distance= 0.000 Bohr   *
       *   Atoms: O   24 and Ca   5 are VERY close: distance= 0.000 Bohr   *
       *   Atoms: O   24 and Ca   8 are VERY close: distance= 0.000 Bohr   *
       *   Atoms: Mg   1 and Mg   4 are VERY close: distance= 0.000 Bohr   *
       *   Atoms: Mg   1 and Ca   5 are VERY close: distance= 0.000 Bohr   *
       *   Atoms: Mg   1 and Ca   8 are VERY close: distance= 0.000 Bohr   *
       *   Atoms: Mg   2 and Ca   6 are VERY close: distance= 0.000 Bohr   *
       *   Atoms: Mg   3 and Ca   7 are VERY close: distance= 0.000 Bohr   *
       *   Atoms: Mg   4 and Ca   5 are VERY close: distance= 0.000 Bohr   *
       *   Atoms: Mg   4 and Ca   8 are VERY close: distance= 0.000 Bohr   *
       *   Atoms: Mg   5 and Mg   8 are VERY close: distance= 0.000 Bohr   *
       *   Atoms: Mg   9 and Mg  12 are VERY close: distance= 0.000 Bohr   *
       *   Atoms: Mg  13 and Mg  16 are VERY close: distance= 0.000 Bohr   *
       *   Atoms: Ca   1 and Ca   4 are VERY close: distance= 0.000 Bohr   *
       *   Atoms: Ca   5 and Ca   8 are VERY close: distance= 0.000 Bohr   *
       *                                                                   *
       *********************************************************************
 
                         No user defined ionic velocities
 
                           -------------------------------
                                   Details of Species
                           -------------------------------
 
                               Mass of species in AMU
                                    O   15.9994000
                                    Mg   24.3050000
                                    Ca   40.0780000
 
                          Electric Quadrupole Moment (Barn)
                                    O   -0.0255800 Isotope 17
                                    Mg    0.1994000 Isotope 25
                                    Ca   -0.0408000 Isotope 43
 
                          Files used for pseudopotentials:
                                    O 2|1.1|15|18|20|20:21(qc=7)
                                    Mg 3|1.8|7|8|9|20U:30:21:32
                                    Ca 3|2.0|7|8|9|30U:40:31:32
 
                           -------------------------------
                              k-Points For BZ Sampling
                           -------------------------------
                       MP grid size for SCF calculation is  3  3  3
                            with an offset of   0.000  0.000  0.000
                       Number of kpoints used =            14
 
                           -------------------------------
                               Symmetry and Constraints
                           -------------------------------
 
                      Cell is a supercell containing 4 primitive cells
                      Maximum deviation from symmetry =  0.00000         ANG
 
         There are no symmetry operations specified or generated for this cell
                      Number of ionic constraints     =           3
                      Point group of crystal =     1: C1, 1, 1
                      Space group of crystal =     0: , 
 
 
                         Centre of mass is constrained
             Set iprint > 1 for details of linear ionic constraints
 
                         Number of cell constraints= 5
                         Cell constraints are:  1 1 1 0 0 0
 
                         External pressure/stress (GPa)
                          0.00000   0.00000   0.00000
                                    0.00000   0.00000
                                              0.00000
  
+---------------- MEMORY AND SCRATCH DISK ESTIMATES PER PROCESS --------------+
|                                                     Memory          Disk    |
| Baseline code, static data and system overhead      176.0 MB         0.0 MB |
| BLAS internal memory storage                          0.0 MB         0.0 MB |
| Model and support data                            11917.7 MB         0.0 MB |
| Electronic energy minimisation requirements       10362.2 MB         0.0 MB |
| Force calculation requirements                      224.1 MB         0.0 MB |
| Stress calculation requirements                     263.7 MB         0.0 MB |
|                                               ----------------------------- |
| Approx. total storage required per process        22455.9 MB         0.0 MB |
|                                                                             |
| Requirements will fluctuate during execution and may exceed these estimates |
+-----------------------------------------------------------------------------+
Calculating finite basis set correction with  3 cut-off energies.
Calculating total energy with cut-off of  270.000eV.
