 +-------------------------------------------------+
 |                                                 |
 |      CCC   AA    SSS  TTTTT  EEEEE  PPPP        |
 |     C     A  A  S       T    E      P   P       |
 |     C     AAAA   SS     T    EEE    PPPP        |
 |     C     A  A     S    T    E      P           |
 |      CCC  A  A  SSS     T    EEEEE  P           |
 |                                                 |
 +-------------------------------------------------+
 |                                                 |
 | Welcome to Academic Release CASTEP version 6.1  |
 | Ab Initio Total Energy Program                  |
 |                                                 |
 | Authors:                                        |
 | M. Segall, M. Probert, C. Pickard, P. Hasnip,   |
 | S. Clark, K. Refson, J. R. Yates, M. Payne      |
 |                                                 |
 | Contributors:                                   |
 | P. Lindan, P. Haynes, J. White, V. Milman,      |
 | N. Govind, M. Gibson, P. Tulip, V. Cocula,      |
 | B. Montanari, D. Quigley, M. Glover,            |
 | L. Bernasconi, A. Perlov, M. Plummer,           |
 | E. McNellis, J. Meyer, J. Gale, D. Jochym       |
 | J. Aarons, B. Walker, R. Gillen                 |
 |                                                 |
 | Copyright (c) 2000 - 2012                       |
 |                                                 |
 |     Distributed under the terms of an           |
 |     Agreement between the United Kingdom        |
 |     Car-Parrinello (UKCP) Consortium,           |
 |     Daresbury Laboratory and Accelrys, Inc.     |
 |                                                 |
 | Please cite                                     |
 |                                                 |
 |     "First principles methods using CASTEP"     |
 |                                                 |
 |         Zeitschrift fuer Kristallographie       |
 |           220(5-6) pp. 567-570 (2005)           |
 |                                                 |
 | S. J. Clark, M. D. Segall, C. J. Pickard,       |
 | P. J. Hasnip, M. J. Probert, K. Refson,         |
 | M. C. Payne                                     |
 |                                                 |
 |       in all publications arising from          |
 |              your use of CASTEP                 |
 |                                                 |
 +-------------------------------------------------+


 Compiled for linux_x86_64_gfortran on Wed Nov 21 15:08:09 2012
 from source code version eaed21d6e002+  2012-10-31
 using fast optimisation, fftw3 FFTs and openblas LAPACK and BLAS.


 Atomic calculation performed for O: 1s2 2s2 2p4

 Converged in 60 iterations to an ae energy of -2027.926 eV

   ============================================================                
   | Pseudopotential Report - Date of generation  1-05-2016   |                
   ------------------------------------------------------------                
   | Element: O Ionic charge:  6.00 Level of theory: LDA      |                
   |                                                          |                
   |               Reference Electronic Structure             |                
   |         Orbital         Occupation         Energy        |                
   |            2s              2.000           -0.873        |                
   |            2p              4.000           -0.338        |                
   |                                                          |                
   |                 Pseudopotential Definition               |                
   |        Beta     l      e      Rc     scheme   norm       |                
   |          1      0   -0.873   1.300     qc      0         |                
   |          2      0    0.250   1.300     qc      0         |                
   |          3      1   -0.338   1.300     qc      0         |                
   |          4      1    0.250   1.300     qc      0         |                
   |         loc     2    0.000   1.004     pn      0         |                
   |                                                          |                
   | Augmentation charge Rinner = 0.701                       |                
   | Partial core correction Rc = 0.701                       |                
   ------------------------------------------------------------                
   | "2|1.0|1.3|0.7|13|16|18|20:21(qc=7)"                     |                
   ------------------------------------------------------------                
   |      Author: Chris J. Pickard, Cambridge University      |                
   ============================================================                

 Atomic calculation performed for Mg: 1s2 2s2 2p6 3s2

 Converged in 47 iterations to an ae energy of -5427.407 eV

 Identity difference:   5.17267234911703770E-004

   ============================================================                
   | Pseudopotential Report - Date of generation  1-05-2016   |                
   ------------------------------------------------------------                
   | Element: Mg Ionic charge:  8.00 Level of theory: LDA     |                
   |                                                          |                
   |               Reference Electronic Structure             |                
   |         Orbital         Occupation         Energy        |                
   |            2p              6.000           -1.717        |                
   |            3s              2.000           -0.176        |                
   |                                                          |                
   |                 Pseudopotential Definition               |                
   |        Beta     l      e      Rc     scheme   norm       |                
   |          1      0   -0.176   1.994     qc      1         |                
   |          2      1   -1.717   1.994     qc      0         |                
   |          3      1    0.000   1.994     qc      0         |                
   |          4      1    0.250   1.994     qc      0         |                
   |         loc     2    0.000   1.605     pn      0         |                
   |                                                          |                
   | Augmentation charge Rinner = 1.405                       |                
   | Partial core correction Rc = 1.405                       |                
   ------------------------------------------------------------                
   | "2|1.6|2|1.4|6|7|8|30NH:21U:31UU:32LGG(qc=4.5)[]"        |                
   ------------------------------------------------------------                
   |      Author: Chris J. Pickard, Cambridge University      |                
   ============================================================                

 Doing a self consistent calculation for the test configuration

 Atomic calculation performed for Mg: 1s2 2s2 2p6 3s2

 Converged in 47 iterations to an ae energy of -5427.407 eV

 ---------------------------------------
 AE eigenvalue nl 10 =      -46.06264936
 AE eigenvalue nl 20 =       -2.91364591
 AE eigenvalue nl 21 =       -1.71672732
 AE eigenvalue nl 30 =       -0.17593422
 ---------------------------------------
 PS eigenvalue nl 21 =       -1.71622098
 PS eigenvalue nl 30 =       -0.17592300
 ---------------------------------------

 Atomic calculation performed for Ca: 1s2 2s2 2p6 3s2 3p6 4s2

 Converged in 44 iterations to an ae energy of -18468.058 eV

   ============================================================                
   | Pseudopotential Report - Date of generation  1-05-2016   |                
   ------------------------------------------------------------                
   | Element: Ca Ionic charge: 10.00 Level of theory: LDA     |                
   |                                                          |                
   |               Reference Electronic Structure             |                
   |         Orbital         Occupation         Energy        |                
   |            3s              2.000           -1.721        |                
   |            3p              6.000           -1.028        |                
   |            4s              2.000           -0.142        |                
   |                                                          |                
   |                 Pseudopotential Definition               |                
   |        Beta     l      e      Rc     scheme   norm       |                
   |          1      0   -1.721   2.005     qc      0         |                
   |          2      0   -0.142   2.005     qc      0         |                
   |          3      1   -1.028   2.005     qc      0         |                
   |          4      1    0.250   2.005     qc      0         |                
   |          5      2    0.000   2.005     qc      0         |                
   |          6      2    1.000   2.005     qc      0         |                
   |         loc     3    0.000   1.601     pn      0         |                
   |                                                          |                
   | Augmentation charge Rinner = 1.401                       |                
   | Partial core correction Rc = 1.401                       |                
   ------------------------------------------------------------                
   | "3|1.6|2.0|1.4|7|9|10|30U:40U:31:32U=0U=1.0"             |                
   ------------------------------------------------------------                
   |      Author: Chris J. Pickard, Cambridge University      |                
   ============================================================                

 Pseudo atomic calculation performed for O 2s2 2p4

 Converged in 28 iterations to a total energy of -428.5589 eV


 Pseudo atomic calculation performed for Mg 2p6 3s2

 Converged in 23 iterations to a total energy of -1024.5020 eV


 Pseudo atomic calculation performed for Ca 3s2 3p6 4s2

 Converged in 24 iterations to a total energy of -1000.3898 eV

 Calculation parallelised over 2 processes.
 Data is distributed by k-point(2-way)

 ************************************ Title ************************************
 MgO

 ***************************** General Parameters ******************************
  
 output verbosity                               : normal  (1)
 write checkpoint data to                       : 27_0.check
 type of calculation                            : single point energy
 stress calculation                             : on
 density difference calculation                 : off
 electron localisation func (ELF) calculation   : off
 Hirshfeld analysis                             : off
 unlimited duration calculation
 timing information                             : on
 memory usage estimate                          : on
 write final potential to formatted file        : off
 write final density to formatted file          : off
 write BibTeX reference list                    : on
  
 output         length unit                     : A
 output           mass unit                     : amu
 output           time unit                     : ps
 output         charge unit                     : e
 output         energy unit                     : eV
 output          force unit                     : eV/A
 output       velocity unit                     : A/ps
 output       pressure unit                     : GPa
 output     inv_length unit                     : 1/A
 output      frequency unit                     : cm-1
 output force constant unit                     : eV/A**2
 output         volume unit                     : A**3
 output   IR intensity unit                     : (D/A)**2/amu
 output         dipole unit                     : D
 output         efield unit                     : eV/A/e
 output        entropy unit                     : J/mol/K
  
 wavefunctions paging                           : none
 random number generator seed                   : randomised (4124733)
 data distribution                              : optimal for this architecture
 optimization strategy                          : maximize speed(+++)

 *********************** Exchange-Correlation Parameters ***********************
  
 using functional                               : Local Density Approximation
 Divergence correction                          : off
 DFT+D: Semi-empirical dispersion correction    : off

 ************************* Pseudopotential Parameters **************************
  
 pseudopotential representation                 : reciprocal space
 <beta|phi> representation                      : reciprocal space

 **************************** Basis Set Parameters *****************************
  
 plane wave basis set cut-off                   :   280.0000   eV
 size of standard grid                          :     2.0000
 size of   fine   gmax                          :    17.1454   1/A
 largest prime factor in FFT                    :          5
 finite basis set correction                    : automatic
 number of sample energies                      :          3
           sample  spacing                      :     5.0000   eV

 **************************** Electronic Parameters ****************************
  
 number of  electrons                           :  200.0    
 net charge of system                           :  0.000    
 net spin   of system                           :  0.000    
 number of  up  spins                           :  100.0    
 number of down spins                           :  100.0    
 treating system as non-spin-polarized
 number of bands                                :        120

 ********************* Electronic Minimization Parameters **********************
  
 Method: Treating system as metallic with density mixing treatment of electrons,
         and number of  SD  steps               :          1
         and number of  CG  steps               :          4
  
 total energy / atom convergence tol.           : 0.1000E-06   eV
 eigen-energy convergence tolerance             : 0.2700E-07   eV
 max force / atom convergence tol.              : ignored
 convergence tolerance window                   :          3   cycles
 max. number of SCF cycles                      :         60
 number of fixed-spin iterations                :         10
 smearing scheme                                : Gaussian
 smearing width                                 : 0.2000       eV
 Fermi energy convergence tolerance             : 0.2700E-08   eV
 periodic dipole correction                     : NONE

 ************************** Density Mixing Parameters **************************
  
 density-mixing scheme                          : Pulay
 max. length of mixing history                  :         30
 charge density mixing amplitude                : 0.8000    
 cut-off energy for mixing                      :  280.0       eV
 charge density mixing g-vector                 :  1.500       1/A

 *********************** Population Analysis Parameters ************************
  
 Population analysis with cutoff                :  3.000       A

 *******************************************************************************
  

                           -------------------------------
                                      Unit Cell
                           -------------------------------
        Real Lattice(A)                      Reciprocal Lattice(1/A)
   4.2000000   0.0000000   0.0000000        1.4959965   0.0000000   0.0000000
   0.0000000   4.2000000   0.0000000        0.0000000   1.4959965   0.0000000
   0.0000000   0.0000000   4.2000000        0.0000000   0.0000000   1.4959965

                       Lattice parameters(A)       Cell Angles
                    a =    4.200000          alpha =   90.000000
                    b =    4.200000          beta  =   90.000000
                    c =    4.200000          gamma =   90.000000

                       Current cell volume =   74.088000       A**3

                           -------------------------------
                                     Cell Contents
                           -------------------------------
                         Total number of ions in cell =   27
                      Total number of species in cell =    3
                        Max number of any one species =   13

            xxxxxxxxxxxxxxxxxxxxxxxxxxxxxxxxxxxxxxxxxxxxxxxxxxxxxxxxxxxx
            x  Element    Atom        Fractional coordinates of atoms  x
            x            Number           u          v          w      x
            x----------------------------------------------------------x
            x  O            1         0.500000   0.000000   0.000000   x
            x  O            2         0.000000   0.500000   0.000000   x
            x  O            3         1.000000   0.500000   0.000000   x
            x  O            4         0.500000   1.000000   0.000000   x
            x  O            5         0.000000   0.000000   0.500000   x
            x  O            6         1.000000   0.000000   0.500000   x
            x  O            7         0.500000   0.500000   0.500000   x
            x  O            8         0.000000   1.000000   0.500000   x
            x  O            9         1.000000   1.000000   0.500000   x
            x  O           10         0.500000   0.000000   1.000000   x
            x  O           11         0.000000   0.500000   1.000000   x
            x  O           12         1.000000   0.500000   1.000000   x
            x  O           13         0.500000   1.000000   1.000000   x
            x  Mg           1         0.000000   0.000000   0.000000   x
            x  Mg           2         1.000000   0.000000   0.000000   x
            x  Mg           3         0.500000   0.500000   0.000000   x
            x  Mg           4         0.000000   1.000000   0.000000   x
            x  Mg           5         1.000000   1.000000   0.000000   x
            x  Mg           6         0.500000   0.000000   0.500000   x
            x  Mg           7         0.000000   0.500000   0.500000   x
            x  Mg           8         1.000000   0.500000   0.500000   x
            x  Mg           9         0.500000   1.000000   0.500000   x
            x  Ca           1         0.000000   0.000000   1.000000   x
            x  Ca           2         1.000000   0.000000   1.000000   x
            x  Ca           3         0.500000   0.500000   1.000000   x
            x  Ca           4         0.000000   1.000000   1.000000   x
            x  Ca           5         1.000000   1.000000   1.000000   x
            xxxxxxxxxxxxxxxxxxxxxxxxxxxxxxxxxxxxxxxxxxxxxxxxxxxxxxxxxxxx

       **********  Atom Position W A R N I N G: Overlapping atoms! *********
       *                                                                   *
       *   Atoms: O    1 and O    4 are VERY close: distance= 0.000 Bohr   *
       *   Atoms: O    1 and O   10 are VERY close: distance= 0.000 Bohr   *
       *   Atoms: O    1 and O   13 are VERY close: distance= 0.000 Bohr   *
       *   Atoms: O    2 and O    3 are VERY close: distance= 0.000 Bohr   *
       *   Atoms: O    2 and O   11 are VERY close: distance= 0.000 Bohr   *
       *   Atoms: O    2 and O   12 are VERY close: distance= 0.000 Bohr   *
       *   Atoms: O    3 and O    2 are VERY close: distance= 0.000 Bohr   *
       *   Atoms: O    3 and O   11 are VERY close: distance= 0.000 Bohr   *
       *   Atoms: O    3 and O   12 are VERY close: distance= 0.000 Bohr   *
       *   Atoms: O    4 and O    1 are VERY close: distance= 0.000 Bohr   *
       *   Atoms: O    4 and O   10 are VERY close: distance= 0.000 Bohr   *
       *   Atoms: O    4 and O   13 are VERY close: distance= 0.000 Bohr   *
       *   Atoms: O    5 and O    6 are VERY close: distance= 0.000 Bohr   *
       *   Atoms: O    5 and O    8 are VERY close: distance= 0.000 Bohr   *
       *   Atoms: O    5 and O    9 are VERY close: distance= 0.000 Bohr   *
       *   Atoms: O    6 and O    5 are VERY close: distance= 0.000 Bohr   *
       *   Atoms: O    6 and O    8 are VERY close: distance= 0.000 Bohr   *
       *   Atoms: O    6 and O    9 are VERY close: distance= 0.000 Bohr   *
       *   Atoms: O    8 and O    5 are VERY close: distance= 0.000 Bohr   *
       *   Atoms: O    8 and O    6 are VERY close: distance= 0.000 Bohr   *
       *   Atoms: O    8 and O    9 are VERY close: distance= 0.000 Bohr   *
       *   Atoms: O    9 and O    5 are VERY close: distance= 0.000 Bohr   *
       *   Atoms: O    9 and O    6 are VERY close: distance= 0.000 Bohr   *
       *   Atoms: O    9 and O    8 are VERY close: distance= 0.000 Bohr   *
       *   Atoms: O   10 and O    1 are VERY close: distance= 0.000 Bohr   *
       *   Atoms: O   10 and O    4 are VERY close: distance= 0.000 Bohr   *
       *   Atoms: O   10 and O   13 are VERY close: distance= 0.000 Bohr   *
       *   Atoms: O   11 and O    2 are VERY close: distance= 0.000 Bohr   *
       *   Atoms: O   11 and O    3 are VERY close: distance= 0.000 Bohr   *
       *   Atoms: O   11 and O   12 are VERY close: distance= 0.000 Bohr   *
       *   Atoms: O   12 and O    2 are VERY close: distance= 0.000 Bohr   *
       *   Atoms: O   12 and O    3 are VERY close: distance= 0.000 Bohr   *
       *   Atoms: O   12 and O   11 are VERY close: distance= 0.000 Bohr   *
       *   Atoms: O   13 and O    1 are VERY close: distance= 0.000 Bohr   *
       *   Atoms: O   13 and O    4 are VERY close: distance= 0.000 Bohr   *
       *   Atoms: O   13 and O   10 are VERY close: distance= 0.000 Bohr   *
       *   Atoms: Mg   1 and Mg   2 are VERY close: distance= 0.000 Bohr   *
       *   Atoms: Mg   1 and Mg   4 are VERY close: distance= 0.000 Bohr   *
       *   Atoms: Mg   1 and Mg   5 are VERY close: distance= 0.000 Bohr   *
       *   Atoms: Mg   1 and Ca   1 are VERY close: distance= 0.000 Bohr   *
       *   Atoms: Mg   1 and Ca   2 are VERY close: distance= 0.000 Bohr   *
       *   Atoms: Mg   1 and Ca   4 are VERY close: distance= 0.000 Bohr   *
       *   Atoms: Mg   1 and Ca   5 are VERY close: distance= 0.000 Bohr   *
       *   Atoms: Mg   2 and Mg   1 are VERY close: distance= 0.000 Bohr   *
       *   Atoms: Mg   2 and Mg   4 are VERY close: distance= 0.000 Bohr   *
       *   Atoms: Mg   2 and Mg   5 are VERY close: distance= 0.000 Bohr   *
       *   Atoms: Mg   2 and Ca   1 are VERY close: distance= 0.000 Bohr   *
       *   Atoms: Mg   2 and Ca   2 are VERY close: distance= 0.000 Bohr   *
       *   Atoms: Mg   2 and Ca   4 are VERY close: distance= 0.000 Bohr   *
       *   Atoms: Mg   2 and Ca   5 are VERY close: distance= 0.000 Bohr   *
       *   Atoms: Mg   3 and Ca   3 are VERY close: distance= 0.000 Bohr   *
       *   Atoms: Mg   4 and Mg   1 are VERY close: distance= 0.000 Bohr   *
       *   Atoms: Mg   4 and Mg   2 are VERY close: distance= 0.000 Bohr   *
       *   Atoms: Mg   4 and Mg   5 are VERY close: distance= 0.000 Bohr   *
       *   Atoms: Mg   4 and Ca   1 are VERY close: distance= 0.000 Bohr   *
       *   Atoms: Mg   4 and Ca   2 are VERY close: distance= 0.000 Bohr   *
       *   Atoms: Mg   4 and Ca   4 are VERY close: distance= 0.000 Bohr   *
       *   Atoms: Mg   4 and Ca   5 are VERY close: distance= 0.000 Bohr   *
       *   Atoms: Mg   5 and Mg   1 are VERY close: distance= 0.000 Bohr   *
       *   Atoms: Mg   5 and Mg   2 are VERY close: distance= 0.000 Bohr   *
       *   Atoms: Mg   5 and Mg   4 are VERY close: distance= 0.000 Bohr   *
       *   Atoms: Mg   5 and Ca   1 are VERY close: distance= 0.000 Bohr   *
       *   Atoms: Mg   5 and Ca   2 are VERY close: distance= 0.000 Bohr   *
       *   Atoms: Mg   5 and Ca   4 are VERY close: distance= 0.000 Bohr   *
       *   Atoms: Mg   5 and Ca   5 are VERY close: distance= 0.000 Bohr   *
       *   Atoms: Mg   6 and Mg   9 are VERY close: distance= 0.000 Bohr   *
       *   Atoms: Mg   7 and Mg   8 are VERY close: distance= 0.000 Bohr   *
       *   Atoms: Mg   8 and Mg   7 are VERY close: distance= 0.000 Bohr   *
       *   Atoms: Mg   9 and Mg   6 are VERY close: distance= 0.000 Bohr   *
       *   Atoms: Ca   1 and Mg   1 are VERY close: distance= 0.000 Bohr   *
       *   Atoms: Ca   1 and Mg   2 are VERY close: distance= 0.000 Bohr   *
       *   Atoms: Ca   1 and Mg   4 are VERY close: distance= 0.000 Bohr   *
       *   Atoms: Ca   1 and Mg   5 are VERY close: distance= 0.000 Bohr   *
       *   Atoms: Ca   1 and Ca   2 are VERY close: distance= 0.000 Bohr   *
       *   Atoms: Ca   1 and Ca   4 are VERY close: distance= 0.000 Bohr   *
       *   Atoms: Ca   1 and Ca   5 are VERY close: distance= 0.000 Bohr   *
       *   Atoms: Ca   2 and Mg   1 are VERY close: distance= 0.000 Bohr   *
       *   Atoms: Ca   2 and Mg   2 are VERY close: distance= 0.000 Bohr   *
       *   Atoms: Ca   2 and Mg   4 are VERY close: distance= 0.000 Bohr   *
       *   Atoms: Ca   2 and Mg   5 are VERY close: distance= 0.000 Bohr   *
       *   Atoms: Ca   2 and Ca   1 are VERY close: distance= 0.000 Bohr   *
       *   Atoms: Ca   2 and Ca   4 are VERY close: distance= 0.000 Bohr   *
       *   Atoms: Ca   2 and Ca   5 are VERY close: distance= 0.000 Bohr   *
       *   Atoms: Ca   3 and Mg   3 are VERY close: distance= 0.000 Bohr   *
       *   Atoms: Ca   4 and Mg   1 are VERY close: distance= 0.000 Bohr   *
       *   Atoms: Ca   4 and Mg   2 are VERY close: distance= 0.000 Bohr   *
       *   Atoms: Ca   4 and Mg   4 are VERY close: distance= 0.000 Bohr   *
       *   Atoms: Ca   4 and Mg   5 are VERY close: distance= 0.000 Bohr   *
       *   Atoms: Ca   4 and Ca   1 are VERY close: distance= 0.000 Bohr   *
       *   Atoms: Ca   4 and Ca   2 are VERY close: distance= 0.000 Bohr   *
       *   Atoms: Ca   4 and Ca   5 are VERY close: distance= 0.000 Bohr   *
       *   Atoms: Ca   5 and Mg   1 are VERY close: distance= 0.000 Bohr   *
       *   Atoms: Ca   5 and Mg   2 are VERY close: distance= 0.000 Bohr   *
       *   Atoms: Ca   5 and Mg   4 are VERY close: distance= 0.000 Bohr   *
       *   Atoms: Ca   5 and Mg   5 are VERY close: distance= 0.000 Bohr   *
       *   Atoms: Ca   5 and Ca   1 are VERY close: distance= 0.000 Bohr   *
       *   Atoms: Ca   5 and Ca   2 are VERY close: distance= 0.000 Bohr   *
       *   Atoms: Ca   5 and Ca   4 are VERY close: distance= 0.000 Bohr   *
       *                                                                   *
       *********************************************************************

                         No user defined ionic velocities

                           -------------------------------
                                   Details of Species
                           -------------------------------

                               Mass of species in AMU
                                    O   15.9994000
                                    Mg   24.3050000
                                    Ca   40.0780000

                          Electric Quadrupole Moment (Barn)
                                    O   -0.0255800 Isotope 17
                                    Mg    0.1994000 Isotope 25
                                    Ca   -0.0408000 Isotope 43

                          Files used for pseudopotentials:
                                    O Pseudopotential generated on-the-fly
                                    Mg Pseudopotential generated on-the-fly
                                    Ca Pseudopotential generated on-the-fly

                           -------------------------------
                              k-Points For BZ Sampling
                           -------------------------------
                       MP grid size for SCF calculation is  3  3  3
                         Number of kpoints used =          14

             +++++++++++++++++++++++++++++++++++++++++++++++++++++++
             +  Number       Fractional coordinates        Weight  +
             +-----------------------------------------------------+
             +     1  -0.333333  -0.333333   0.000000   0.0740741  +
             +     2  -0.333333   0.000000  -0.333333   0.0740741  +
             +     3  -0.333333   0.000000   0.000000   0.0740741  +
             +     4  -0.333333   0.000000   0.333333   0.0740741  +
             +     5  -0.333333   0.333333   0.000000   0.0740741  +
             +     6   0.000000   0.000000  -0.333333   0.0740741  +
             +     7   0.000000   0.000000   0.000000   0.0370370  +
             +     8   0.000000   0.333333  -0.333333   0.0740741  +
             +     9   0.000000   0.333333   0.000000   0.0740741  +
             +    10   0.000000   0.333333   0.333333   0.0740741  +
             +    11   0.333333  -0.333333  -0.333333   0.0740741  +
             +    12   0.333333  -0.333333   0.333333   0.0740741  +
             +    13   0.333333   0.333333  -0.333333   0.0740741  +
             +    14   0.333333   0.333333   0.333333   0.0740741  +
             +++++++++++++++++++++++++++++++++++++++++++++++++++++++

                           -------------------------------
                               Symmetry and Constraints
                           -------------------------------

         There are no symmetry operations specified or generated for this cell
                      Number of ionic constraints     =           3
                      Maximum deviation from symmetry =  0.00000         ANG
               Point group of crystal =     1: C1, 1, 1

                          Centre of mass is constrained
             Set iprint > 1 for details of linear ionic constraints

                         Number of cell constraints= 5
                         Cell constraints are:  1 1 1 0 0 0

                         External pressure/stress (GPa)
                          0.00000   0.00000   0.00000
                                    0.00000   0.00000
                                              0.00000
  
+---------------- MEMORY AND SCRATCH DISK ESTIMATES PER NODE -----------------+
|                                                     Memory          Disk    |
| Model and support data                              101.0 MB         0.0 MB |
| Electronic energy minimisation requirements          32.4 MB         0.0 MB |
|                                               ----------------------------- |
| Approx. total storage required per node             133.4 MB         0.0 MB |
|                                                                             |
| Requirements will fluctuate during execution and may exceed these estimates |
+-----------------------------------------------------------------------------+
Calculating finite basis set correction with  3 cut-off energies.
Calculating total energy with cut-off of  270.000eV.
------------------------------------------------------------------------ <-- SCF
SCF loop      Energy           Fermi           Energy gain       Timer   <-- SCF
                               energy          per atom          (sec)   <-- SCF
------------------------------------------------------------------------ <-- SCF
Initial  -7.67736936E+004  0.00000000E+000                        28.20  <-- SCF
 +-------------------------------------------------+
 |                                                 |
 |      CCC   AA    SSS  TTTTT  EEEEE  PPPP        |
 |     C     A  A  S       T    E      P   P       |
 |     C     AAAA   SS     T    EEE    PPPP        |
 |     C     A  A     S    T    E      P           |
 |      CCC  A  A  SSS     T    EEEEE  P           |
 |                                                 |
 +-------------------------------------------------+
 |                                                 |
 | Welcome to Academic Release CASTEP version 6.1  |
 | Ab Initio Total Energy Program                  |
 |                                                 |
 | Authors:                                        |
 | M. Segall, M. Probert, C. Pickard, P. Hasnip,   |
 | S. Clark, K. Refson, J. R. Yates, M. Payne      |
 |                                                 |
 | Contributors:                                   |
 | P. Lindan, P. Haynes, J. White, V. Milman,      |
 | N. Govind, M. Gibson, P. Tulip, V. Cocula,      |
 | B. Montanari, D. Quigley, M. Glover,            |
 | L. Bernasconi, A. Perlov, M. Plummer,           |
 | E. McNellis, J. Meyer, J. Gale, D. Jochym       |
 | J. Aarons, B. Walker, R. Gillen                 |
 |                                                 |
 | Copyright (c) 2000 - 2012                       |
 |                                                 |
 |     Distributed under the terms of an           |
 |     Agreement between the United Kingdom        |
 |     Car-Parrinello (UKCP) Consortium,           |
 |     Daresbury Laboratory and Accelrys, Inc.     |
 |                                                 |
 | Please cite                                     |
 |                                                 |
 |     "First principles methods using CASTEP"     |
 |                                                 |
 |         Zeitschrift fuer Kristallographie       |
 |           220(5-6) pp. 567-570 (2005)           |
 |                                                 |
 | S. J. Clark, M. D. Segall, C. J. Pickard,       |
 | P. J. Hasnip, M. J. Probert, K. Refson,         |
 | M. C. Payne                                     |
 |                                                 |
 |       in all publications arising from          |
 |              your use of CASTEP                 |
 |                                                 |
 +-------------------------------------------------+


 Compiled for linux_x86_64_gfortran on Wed Nov 21 15:08:09 2012
 from source code version eaed21d6e002+  2012-10-31
 using fast optimisation, fftw3 FFTs and openblas LAPACK and BLAS.


 Atomic calculation performed for O: 1s2 2s2 2p4

 Converged in 60 iterations to an ae energy of -2027.926 eV

   ============================================================                
   | Pseudopotential Report - Date of generation  1-05-2016   |                
   ------------------------------------------------------------                
   | Element: O Ionic charge:  6.00 Level of theory: LDA      |                
   |                                                          |                
   |               Reference Electronic Structure             |                
   |         Orbital         Occupation         Energy        |                
   |            2s              2.000           -0.873        |                
   |            2p              4.000           -0.338        |                
   |                                                          |                
   |                 Pseudopotential Definition               |                
   |        Beta     l      e      Rc     scheme   norm       |                
   |          1      0   -0.873   1.300     qc      0         |                
   |          2      0    0.250   1.300     qc      0         |                
   |          3      1   -0.338   1.300     qc      0         |                
   |          4      1    0.250   1.300     qc      0         |                
   |         loc     2    0.000   1.004     pn      0         |                
   |                                                          |                
   | Augmentation charge Rinner = 0.701                       |                
   | Partial core correction Rc = 0.701                       |                
   ------------------------------------------------------------                
   | "2|1.0|1.3|0.7|13|16|18|20:21(qc=7)"                     |                
   ------------------------------------------------------------                
   |      Author: Chris J. Pickard, Cambridge University      |                
   ============================================================                

 Atomic calculation performed for Mg: 1s2 2s2 2p6 3s2

 Converged in 47 iterations to an ae energy of -5427.407 eV

 Identity difference:   5.17267234911703770E-004

   ============================================================                
   | Pseudopotential Report - Date of generation  1-05-2016   |                
   ------------------------------------------------------------                
   | Element: Mg Ionic charge:  8.00 Level of theory: LDA     |                
   |                                                          |                
   |               Reference Electronic Structure             |                
   |         Orbital         Occupation         Energy        |                
   |            2p              6.000           -1.717        |                
   |            3s              2.000           -0.176        |                
   |                                                          |                
   |                 Pseudopotential Definition               |                
   |        Beta     l      e      Rc     scheme   norm       |                
   |          1      0   -0.176   1.994     qc      1         |                
   |          2      1   -1.717   1.994     qc      0         |                
   |          3      1    0.000   1.994     qc      0         |                
   |          4      1    0.250   1.994     qc      0         |                
   |         loc     2    0.000   1.605     pn      0         |                
   |                                                          |                
   | Augmentation charge Rinner = 1.405                       |                
   | Partial core correction Rc = 1.405                       |                
   ------------------------------------------------------------                
   | "2|1.6|2|1.4|6|7|8|30NH:21U:31UU:32LGG(qc=4.5)[]"        |                
   ------------------------------------------------------------                
   |      Author: Chris J. Pickard, Cambridge University      |                
   ============================================================                

 Doing a self consistent calculation for the test configuration

 Atomic calculation performed for Mg: 1s2 2s2 2p6 3s2

 Converged in 47 iterations to an ae energy of -5427.407 eV

 ---------------------------------------
 AE eigenvalue nl 10 =      -46.06264936
 AE eigenvalue nl 20 =       -2.91364591
 AE eigenvalue nl 21 =       -1.71672732
 AE eigenvalue nl 30 =       -0.17593422
 ---------------------------------------
 PS eigenvalue nl 21 =       -1.71622098
 PS eigenvalue nl 30 =       -0.17592300
 ---------------------------------------

 Atomic calculation performed for Ca: 1s2 2s2 2p6 3s2 3p6 4s2

 Converged in 44 iterations to an ae energy of -18468.058 eV

   ============================================================                
   | Pseudopotential Report - Date of generation  1-05-2016   |                
   ------------------------------------------------------------                
   | Element: Ca Ionic charge: 10.00 Level of theory: LDA     |                
   |                                                          |                
   |               Reference Electronic Structure             |                
   |         Orbital         Occupation         Energy        |                
   |            3s              2.000           -1.721        |                
   |            3p              6.000           -1.028        |                
   |            4s              2.000           -0.142        |                
   |                                                          |                
   |                 Pseudopotential Definition               |                
   |        Beta     l      e      Rc     scheme   norm       |                
   |          1      0   -1.721   2.005     qc      0         |                
   |          2      0   -0.142   2.005     qc      0         |                
   |          3      1   -1.028   2.005     qc      0         |                
   |          4      1    0.250   2.005     qc      0         |                
   |          5      2    0.000   2.005     qc      0         |                
   |          6      2    1.000   2.005     qc      0         |                
   |         loc     3    0.000   1.601     pn      0         |                
   |                                                          |                
   | Augmentation charge Rinner = 1.401                       |                
   | Partial core correction Rc = 1.401                       |                
   ------------------------------------------------------------                
   | "3|1.6|2.0|1.4|7|9|10|30U:40U:31:32U=0U=1.0"             |                
   ------------------------------------------------------------                
   |      Author: Chris J. Pickard, Cambridge University      |                
   ============================================================                

 Pseudo atomic calculation performed for O 2s2 2p4

 Converged in 28 iterations to a total energy of -428.5589 eV


 Pseudo atomic calculation performed for Mg 2p6 3s2

 Converged in 23 iterations to a total energy of -1024.5020 eV


 Pseudo atomic calculation performed for Ca 3s2 3p6 4s2

 Converged in 24 iterations to a total energy of -1000.3898 eV

 Calculation parallelised over 2 processes.
 Data is distributed by k-point(2-way)

 ************************************ Title ************************************
 MgO

 ***************************** General Parameters ******************************
  
 output verbosity                               : normal  (1)
 write checkpoint data to                       : 27_0.check
 type of calculation                            : single point energy
 stress calculation                             : on
 density difference calculation                 : off
 electron localisation func (ELF) calculation   : off
 Hirshfeld analysis                             : off
 unlimited duration calculation
 timing information                             : on
 memory usage estimate                          : on
 write final potential to formatted file        : off
 write final density to formatted file          : off
 write BibTeX reference list                    : on
  
 output         length unit                     : A
 output           mass unit                     : amu
 output           time unit                     : ps
 output         charge unit                     : e
 output         energy unit                     : eV
 output          force unit                     : eV/A
 output       velocity unit                     : A/ps
 output       pressure unit                     : GPa
 output     inv_length unit                     : 1/A
 output      frequency unit                     : cm-1
 output force constant unit                     : eV/A**2
 output         volume unit                     : A**3
 output   IR intensity unit                     : (D/A)**2/amu
 output         dipole unit                     : D
 output         efield unit                     : eV/A/e
 output        entropy unit                     : J/mol/K
  
 wavefunctions paging                           : none
 random number generator seed                   : randomised (115555235)
 data distribution                              : optimal for this architecture
 optimization strategy                          : maximize speed(+++)

 *********************** Exchange-Correlation Parameters ***********************
  
 using functional                               : Local Density Approximation
 Divergence correction                          : off
 DFT+D: Semi-empirical dispersion correction    : off

 ************************* Pseudopotential Parameters **************************
  
 pseudopotential representation                 : reciprocal space
 <beta|phi> representation                      : reciprocal space

 **************************** Basis Set Parameters *****************************
  
 plane wave basis set cut-off                   :   280.0000   eV
 size of standard grid                          :     2.0000
 size of   fine   gmax                          :    17.1454   1/A
 largest prime factor in FFT                    :          5
 finite basis set correction                    : automatic
 number of sample energies                      :          3
           sample  spacing                      :     5.0000   eV

 **************************** Electronic Parameters ****************************
  
 number of  electrons                           :  200.0    
 net charge of system                           :  0.000    
 net spin   of system                           :  0.000    
 number of  up  spins                           :  100.0    
 number of down spins                           :  100.0    
 treating system as non-spin-polarized
 number of bands                                :        120

 ********************* Electronic Minimization Parameters **********************
  
 Method: Treating system as metallic with density mixing treatment of electrons,
         and number of  SD  steps               :          1
         and number of  CG  steps               :          4
  
 total energy / atom convergence tol.           : 0.1000E-06   eV
 eigen-energy convergence tolerance             : 0.2700E-07   eV
 max force / atom convergence tol.              : ignored
 convergence tolerance window                   :          3   cycles
 max. number of SCF cycles                      :         60
 number of fixed-spin iterations                :         10
 smearing scheme                                : Gaussian
 smearing width                                 : 0.2000       eV
 Fermi energy convergence tolerance             : 0.2700E-08   eV
 periodic dipole correction                     : NONE

 ************************** Density Mixing Parameters **************************
  
 density-mixing scheme                          : Pulay
 max. length of mixing history                  :         30
 charge density mixing amplitude                : 0.8000    
 cut-off energy for mixing                      :  280.0       eV
 charge density mixing g-vector                 :  1.500       1/A

 *********************** Population Analysis Parameters ************************
  
 Population analysis with cutoff                :  3.000       A

 *******************************************************************************
  

                           -------------------------------
                                      Unit Cell
                           -------------------------------
        Real Lattice(A)                      Reciprocal Lattice(1/A)
   4.2000000   0.0000000   0.0000000        1.4959965   0.0000000   0.0000000
   0.0000000   4.2000000   0.0000000        0.0000000   1.4959965   0.0000000
   0.0000000   0.0000000   4.2000000        0.0000000   0.0000000   1.4959965

                       Lattice parameters(A)       Cell Angles
                    a =    4.200000          alpha =   90.000000
                    b =    4.200000          beta  =   90.000000
                    c =    4.200000          gamma =   90.000000

                       Current cell volume =   74.088000       A**3

                           -------------------------------
                                     Cell Contents
                           -------------------------------
                         Total number of ions in cell =   27
                      Total number of species in cell =    3
                        Max number of any one species =   13

            xxxxxxxxxxxxxxxxxxxxxxxxxxxxxxxxxxxxxxxxxxxxxxxxxxxxxxxxxxxx
            x  Element    Atom        Fractional coordinates of atoms  x
            x            Number           u          v          w      x
            x----------------------------------------------------------x
            x  O            1         0.500000   0.000000   0.000000   x
            x  O            2         0.000000   0.500000   0.000000   x
            x  O            3         1.000000   0.500000   0.000000   x
            x  O            4         0.500000   1.000000   0.000000   x
            x  O            5         0.000000   0.000000   0.500000   x
            x  O            6         1.000000   0.000000   0.500000   x
            x  O            7         0.500000   0.500000   0.500000   x
            x  O            8         0.000000   1.000000   0.500000   x
            x  O            9         1.000000   1.000000   0.500000   x
            x  O           10         0.500000   0.000000   1.000000   x
            x  O           11         0.000000   0.500000   1.000000   x
            x  O           12         1.000000   0.500000   1.000000   x
            x  O           13         0.500000   1.000000   1.000000   x
            x  Mg           1         0.000000   0.000000   0.000000   x
            x  Mg           2         1.000000   0.000000   0.000000   x
            x  Mg           3         0.500000   0.500000   0.000000   x
            x  Mg           4         0.000000   1.000000   0.000000   x
            x  Mg           5         1.000000   1.000000   0.000000   x
            x  Mg           6         0.500000   0.000000   0.500000   x
            x  Mg           7         0.000000   0.500000   0.500000   x
            x  Mg           8         1.000000   0.500000   0.500000   x
            x  Mg           9         0.500000   1.000000   0.500000   x
            x  Ca           1         0.000000   0.000000   1.000000   x
            x  Ca           2         1.000000   0.000000   1.000000   x
            x  Ca           3         0.500000   0.500000   1.000000   x
            x  Ca           4         0.000000   1.000000   1.000000   x
            x  Ca           5         1.000000   1.000000   1.000000   x
            xxxxxxxxxxxxxxxxxxxxxxxxxxxxxxxxxxxxxxxxxxxxxxxxxxxxxxxxxxxx

       **********  Atom Position W A R N I N G: Overlapping atoms! *********
       *                                                                   *
       *   Atoms: O    1 and O    4 are VERY close: distance= 0.000 Bohr   *
       *   Atoms: O    1 and O   10 are VERY close: distance= 0.000 Bohr   *
       *   Atoms: O    1 and O   13 are VERY close: distance= 0.000 Bohr   *
       *   Atoms: O    2 and O    3 are VERY close: distance= 0.000 Bohr   *
       *   Atoms: O    2 and O   11 are VERY close: distance= 0.000 Bohr   *
       *   Atoms: O    2 and O   12 are VERY close: distance= 0.000 Bohr   *
       *   Atoms: O    3 and O    2 are VERY close: distance= 0.000 Bohr   *
       *   Atoms: O    3 and O   11 are VERY close: distance= 0.000 Bohr   *
       *   Atoms: O    3 and O   12 are VERY close: distance= 0.000 Bohr   *
       *   Atoms: O    4 and O    1 are VERY close: distance= 0.000 Bohr   *
       *   Atoms: O    4 and O   10 are VERY close: distance= 0.000 Bohr   *
       *   Atoms: O    4 and O   13 are VERY close: distance= 0.000 Bohr   *
       *   Atoms: O    5 and O    6 are VERY close: distance= 0.000 Bohr   *
       *   Atoms: O    5 and O    8 are VERY close: distance= 0.000 Bohr   *
       *   Atoms: O    5 and O    9 are VERY close: distance= 0.000 Bohr   *
       *   Atoms: O    6 and O    5 are VERY close: distance= 0.000 Bohr   *
       *   Atoms: O    6 and O    8 are VERY close: distance= 0.000 Bohr   *
       *   Atoms: O    6 and O    9 are VERY close: distance= 0.000 Bohr   *
       *   Atoms: O    8 and O    5 are VERY close: distance= 0.000 Bohr   *
       *   Atoms: O    8 and O    6 are VERY close: distance= 0.000 Bohr   *
       *   Atoms: O    8 and O    9 are VERY close: distance= 0.000 Bohr   *
       *   Atoms: O    9 and O    5 are VERY close: distance= 0.000 Bohr   *
       *   Atoms: O    9 and O    6 are VERY close: distance= 0.000 Bohr   *
       *   Atoms: O    9 and O    8 are VERY close: distance= 0.000 Bohr   *
       *   Atoms: O   10 and O    1 are VERY close: distance= 0.000 Bohr   *
       *   Atoms: O   10 and O    4 are VERY close: distance= 0.000 Bohr   *
       *   Atoms: O   10 and O   13 are VERY close: distance= 0.000 Bohr   *
       *   Atoms: O   11 and O    2 are VERY close: distance= 0.000 Bohr   *
       *   Atoms: O   11 and O    3 are VERY close: distance= 0.000 Bohr   *
       *   Atoms: O   11 and O   12 are VERY close: distance= 0.000 Bohr   *
       *   Atoms: O   12 and O    2 are VERY close: distance= 0.000 Bohr   *
       *   Atoms: O   12 and O    3 are VERY close: distance= 0.000 Bohr   *
       *   Atoms: O   12 and O   11 are VERY close: distance= 0.000 Bohr   *
       *   Atoms: O   13 and O    1 are VERY close: distance= 0.000 Bohr   *
       *   Atoms: O   13 and O    4 are VERY close: distance= 0.000 Bohr   *
       *   Atoms: O   13 and O   10 are VERY close: distance= 0.000 Bohr   *
       *   Atoms: Mg   1 and Mg   2 are VERY close: distance= 0.000 Bohr   *
       *   Atoms: Mg   1 and Mg   4 are VERY close: distance= 0.000 Bohr   *
       *   Atoms: Mg   1 and Mg   5 are VERY close: distance= 0.000 Bohr   *
       *   Atoms: Mg   1 and Ca   1 are VERY close: distance= 0.000 Bohr   *
       *   Atoms: Mg   1 and Ca   2 are VERY close: distance= 0.000 Bohr   *
       *   Atoms: Mg   1 and Ca   4 are VERY close: distance= 0.000 Bohr   *
       *   Atoms: Mg   1 and Ca   5 are VERY close: distance= 0.000 Bohr   *
       *   Atoms: Mg   2 and Mg   1 are VERY close: distance= 0.000 Bohr   *
       *   Atoms: Mg   2 and Mg   4 are VERY close: distance= 0.000 Bohr   *
       *   Atoms: Mg   2 and Mg   5 are VERY close: distance= 0.000 Bohr   *
       *   Atoms: Mg   2 and Ca   1 are VERY close: distance= 0.000 Bohr   *
       *   Atoms: Mg   2 and Ca   2 are VERY close: distance= 0.000 Bohr   *
       *   Atoms: Mg   2 and Ca   4 are VERY close: distance= 0.000 Bohr   *
       *   Atoms: Mg   2 and Ca   5 are VERY close: distance= 0.000 Bohr   *
       *   Atoms: Mg   3 and Ca   3 are VERY close: distance= 0.000 Bohr   *
       *   Atoms: Mg   4 and Mg   1 are VERY close: distance= 0.000 Bohr   *
       *   Atoms: Mg   4 and Mg   2 are VERY close: distance= 0.000 Bohr   *
       *   Atoms: Mg   4 and Mg   5 are VERY close: distance= 0.000 Bohr   *
       *   Atoms: Mg   4 and Ca   1 are VERY close: distance= 0.000 Bohr   *
       *   Atoms: Mg   4 and Ca   2 are VERY close: distance= 0.000 Bohr   *
       *   Atoms: Mg   4 and Ca   4 are VERY close: distance= 0.000 Bohr   *
       *   Atoms: Mg   4 and Ca   5 are VERY close: distance= 0.000 Bohr   *
       *   Atoms: Mg   5 and Mg   1 are VERY close: distance= 0.000 Bohr   *
       *   Atoms: Mg   5 and Mg   2 are VERY close: distance= 0.000 Bohr   *
       *   Atoms: Mg   5 and Mg   4 are VERY close: distance= 0.000 Bohr   *
       *   Atoms: Mg   5 and Ca   1 are VERY close: distance= 0.000 Bohr   *
       *   Atoms: Mg   5 and Ca   2 are VERY close: distance= 0.000 Bohr   *
       *   Atoms: Mg   5 and Ca   4 are VERY close: distance= 0.000 Bohr   *
       *   Atoms: Mg   5 and Ca   5 are VERY close: distance= 0.000 Bohr   *
       *   Atoms: Mg   6 and Mg   9 are VERY close: distance= 0.000 Bohr   *
       *   Atoms: Mg   7 and Mg   8 are VERY close: distance= 0.000 Bohr   *
       *   Atoms: Mg   8 and Mg   7 are VERY close: distance= 0.000 Bohr   *
       *   Atoms: Mg   9 and Mg   6 are VERY close: distance= 0.000 Bohr   *
       *   Atoms: Ca   1 and Mg   1 are VERY close: distance= 0.000 Bohr   *
       *   Atoms: Ca   1 and Mg   2 are VERY close: distance= 0.000 Bohr   *
       *   Atoms: Ca   1 and Mg   4 are VERY close: distance= 0.000 Bohr   *
       *   Atoms: Ca   1 and Mg   5 are VERY close: distance= 0.000 Bohr   *
       *   Atoms: Ca   1 and Ca   2 are VERY close: distance= 0.000 Bohr   *
       *   Atoms: Ca   1 and Ca   4 are VERY close: distance= 0.000 Bohr   *
       *   Atoms: Ca   1 and Ca   5 are VERY close: distance= 0.000 Bohr   *
       *   Atoms: Ca   2 and Mg   1 are VERY close: distance= 0.000 Bohr   *
       *   Atoms: Ca   2 and Mg   2 are VERY close: distance= 0.000 Bohr   *
       *   Atoms: Ca   2 and Mg   4 are VERY close: distance= 0.000 Bohr   *
       *   Atoms: Ca   2 and Mg   5 are VERY close: distance= 0.000 Bohr   *
       *   Atoms: Ca   2 and Ca   1 are VERY close: distance= 0.000 Bohr   *
       *   Atoms: Ca   2 and Ca   4 are VERY close: distance= 0.000 Bohr   *
       *   Atoms: Ca   2 and Ca   5 are VERY close: distance= 0.000 Bohr   *
       *   Atoms: Ca   3 and Mg   3 are VERY close: distance= 0.000 Bohr   *
       *   Atoms: Ca   4 and Mg   1 are VERY close: distance= 0.000 Bohr   *
       *   Atoms: Ca   4 and Mg   2 are VERY close: distance= 0.000 Bohr   *
       *   Atoms: Ca   4 and Mg   4 are VERY close: distance= 0.000 Bohr   *
       *   Atoms: Ca   4 and Mg   5 are VERY close: distance= 0.000 Bohr   *
       *   Atoms: Ca   4 and Ca   1 are VERY close: distance= 0.000 Bohr   *
       *   Atoms: Ca   4 and Ca   2 are VERY close: distance= 0.000 Bohr   *
       *   Atoms: Ca   4 and Ca   5 are VERY close: distance= 0.000 Bohr   *
       *   Atoms: Ca   5 and Mg   1 are VERY close: distance= 0.000 Bohr   *
       *   Atoms: Ca   5 and Mg   2 are VERY close: distance= 0.000 Bohr   *
       *   Atoms: Ca   5 and Mg   4 are VERY close: distance= 0.000 Bohr   *
       *   Atoms: Ca   5 and Mg   5 are VERY close: distance= 0.000 Bohr   *
       *   Atoms: Ca   5 and Ca   1 are VERY close: distance= 0.000 Bohr   *
       *   Atoms: Ca   5 and Ca   2 are VERY close: distance= 0.000 Bohr   *
       *   Atoms: Ca   5 and Ca   4 are VERY close: distance= 0.000 Bohr   *
       *                                                                   *
       *********************************************************************

                         No user defined ionic velocities

                           -------------------------------
                                   Details of Species
                           -------------------------------

                               Mass of species in AMU
                                    O   15.9994000
                                    Mg   24.3050000
                                    Ca   40.0780000

                          Electric Quadrupole Moment (Barn)
                                    O   -0.0255800 Isotope 17
                                    Mg    0.1994000 Isotope 25
                                    Ca   -0.0408000 Isotope 43

                          Files used for pseudopotentials:
                                    O Pseudopotential generated on-the-fly
                                    Mg Pseudopotential generated on-the-fly
                                    Ca Pseudopotential generated on-the-fly

                           -------------------------------
                              k-Points For BZ Sampling
                           -------------------------------
                       MP grid size for SCF calculation is  3  3  3
                         Number of kpoints used =          14

             +++++++++++++++++++++++++++++++++++++++++++++++++++++++
             +  Number       Fractional coordinates        Weight  +
             +-----------------------------------------------------+
             +     1  -0.333333  -0.333333   0.000000   0.0740741  +
             +     2  -0.333333   0.000000  -0.333333   0.0740741  +
             +     3  -0.333333   0.000000   0.000000   0.0740741  +
             +     4  -0.333333   0.000000   0.333333   0.0740741  +
             +     5  -0.333333   0.333333   0.000000   0.0740741  +
             +     6   0.000000   0.000000  -0.333333   0.0740741  +
             +     7   0.000000   0.000000   0.000000   0.0370370  +
             +     8   0.000000   0.333333  -0.333333   0.0740741  +
             +     9   0.000000   0.333333   0.000000   0.0740741  +
             +    10   0.000000   0.333333   0.333333   0.0740741  +
             +    11   0.333333  -0.333333  -0.333333   0.0740741  +
             +    12   0.333333  -0.333333   0.333333   0.0740741  +
             +    13   0.333333   0.333333  -0.333333   0.0740741  +
             +    14   0.333333   0.333333   0.333333   0.0740741  +
             +++++++++++++++++++++++++++++++++++++++++++++++++++++++

                           -------------------------------
                               Symmetry and Constraints
                           -------------------------------

         There are no symmetry operations specified or generated for this cell
                      Number of ionic constraints     =           3
                      Maximum deviation from symmetry =  0.00000         ANG
               Point group of crystal =     1: C1, 1, 1

                          Centre of mass is constrained
             Set iprint > 1 for details of linear ionic constraints

                         Number of cell constraints= 5
                         Cell constraints are:  1 1 1 0 0 0

                         External pressure/stress (GPa)
                          0.00000   0.00000   0.00000
                                    0.00000   0.00000
                                              0.00000
  
+---------------- MEMORY AND SCRATCH DISK ESTIMATES PER NODE -----------------+
|                                                     Memory          Disk    |
| Model and support data                              101.0 MB         0.0 MB |
| Electronic energy minimisation requirements          32.4 MB         0.0 MB |
|                                               ----------------------------- |
| Approx. total storage required per node             133.4 MB         0.0 MB |
|                                                                             |
| Requirements will fluctuate during execution and may exceed these estimates |
+-----------------------------------------------------------------------------+
Calculating finite basis set correction with  3 cut-off energies.
Calculating total energy with cut-off of  270.000eV.
------------------------------------------------------------------------ <-- SCF
SCF loop      Energy           Fermi           Energy gain       Timer   <-- SCF
                               energy          per atom          (sec)   <-- SCF
------------------------------------------------------------------------ <-- SCF
Initial  -7.67049851E+004  0.00000000E+000                        32.85  <-- SCF
 +-------------------------------------------------+
 |                                                 |
 |      CCC   AA    SSS  TTTTT  EEEEE  PPPP        |
 |     C     A  A  S       T    E      P   P       |
 |     C     AAAA   SS     T    EEE    PPPP        |
 |     C     A  A     S    T    E      P           |
 |      CCC  A  A  SSS     T    EEEEE  P           |
 |                                                 |
 +-------------------------------------------------+
 |                                                 |
 | Welcome to Academic Release CASTEP version 6.1  |
 | Ab Initio Total Energy Program                  |
 |                                                 |
 | Authors:                                        |
 | M. Segall, M. Probert, C. Pickard, P. Hasnip,   |
 | S. Clark, K. Refson, J. R. Yates, M. Payne      |
 |                                                 |
 | Contributors:                                   |
 | P. Lindan, P. Haynes, J. White, V. Milman,      |
 | N. Govind, M. Gibson, P. Tulip, V. Cocula,      |
 | B. Montanari, D. Quigley, M. Glover,            |
 | L. Bernasconi, A. Perlov, M. Plummer,           |
 | E. McNellis, J. Meyer, J. Gale, D. Jochym       |
 | J. Aarons, B. Walker, R. Gillen                 |
 |                                                 |
 | Copyright (c) 2000 - 2012                       |
 |                                                 |
 |     Distributed under the terms of an           |
 |     Agreement between the United Kingdom        |
 |     Car-Parrinello (UKCP) Consortium,           |
 |     Daresbury Laboratory and Accelrys, Inc.     |
 |                                                 |
 | Please cite                                     |
 |                                                 |
 |     "First principles methods using CASTEP"     |
 |                                                 |
 |         Zeitschrift fuer Kristallographie       |
 |           220(5-6) pp. 567-570 (2005)           |
 |                                                 |
 | S. J. Clark, M. D. Segall, C. J. Pickard,       |
 | P. J. Hasnip, M. J. Probert, K. Refson,         |
 | M. C. Payne                                     |
 |                                                 |
 |       in all publications arising from          |
 |              your use of CASTEP                 |
 |                                                 |
 +-------------------------------------------------+


 Compiled for linux_x86_64_gfortran on Wed Nov 21 15:08:09 2012
 from source code version eaed21d6e002+  2012-10-31
 using fast optimisation, fftw3 FFTs and openblas LAPACK and BLAS.


 Atomic calculation performed for O: 1s2 2s2 2p4

 Converged in 60 iterations to an ae energy of -2027.926 eV

   ============================================================                
   | Pseudopotential Report - Date of generation  1-05-2016   |                
   ------------------------------------------------------------                
   | Element: O Ionic charge:  6.00 Level of theory: LDA      |                
   |                                                          |                
   |               Reference Electronic Structure             |                
   |         Orbital         Occupation         Energy        |                
   |            2s              2.000           -0.873        |                
   |            2p              4.000           -0.338        |                
   |                                                          |                
   |                 Pseudopotential Definition               |                
   |        Beta     l      e      Rc     scheme   norm       |                
   |          1      0   -0.873   1.300     qc      0         |                
   |          2      0    0.250   1.300     qc      0         |                
   |          3      1   -0.338   1.300     qc      0         |                
   |          4      1    0.250   1.300     qc      0         |                
   |         loc     2    0.000   1.004     pn      0         |                
   |                                                          |                
   | Augmentation charge Rinner = 0.701                       |                
   | Partial core correction Rc = 0.701                       |                
   ------------------------------------------------------------                
   | "2|1.0|1.3|0.7|13|16|18|20:21(qc=7)"                     |                
   ------------------------------------------------------------                
   |      Author: Chris J. Pickard, Cambridge University      |                
   ============================================================                

 Atomic calculation performed for Mg: 1s2 2s2 2p6 3s2

 Converged in 47 iterations to an ae energy of -5427.407 eV

 Identity difference:   5.17267234911703770E-004

   ============================================================                
   | Pseudopotential Report - Date of generation  1-05-2016   |                
   ------------------------------------------------------------                
   | Element: Mg Ionic charge:  8.00 Level of theory: LDA     |                
   |                                                          |                
   |               Reference Electronic Structure             |                
   |         Orbital         Occupation         Energy        |                
   |            2p              6.000           -1.717        |                
   |            3s              2.000           -0.176        |                
   |                                                          |                
   |                 Pseudopotential Definition               |                
   |        Beta     l      e      Rc     scheme   norm       |                
   |          1      0   -0.176   1.994     qc      1         |                
   |          2      1   -1.717   1.994     qc      0         |                
   |          3      1    0.000   1.994     qc      0         |                
   |          4      1    0.250   1.994     qc      0         |                
   |         loc     2    0.000   1.605     pn      0         |                
   |                                                          |                
   | Augmentation charge Rinner = 1.405                       |                
   | Partial core correction Rc = 1.405                       |                
   ------------------------------------------------------------                
   | "2|1.6|2|1.4|6|7|8|30NH:21U:31UU:32LGG(qc=4.5)[]"        |                
   ------------------------------------------------------------                
   |      Author: Chris J. Pickard, Cambridge University      |                
   ============================================================                

 Doing a self consistent calculation for the test configuration

 Atomic calculation performed for Mg: 1s2 2s2 2p6 3s2

 Converged in 47 iterations to an ae energy of -5427.407 eV

 ---------------------------------------
 AE eigenvalue nl 10 =      -46.06264936
 AE eigenvalue nl 20 =       -2.91364591
 AE eigenvalue nl 21 =       -1.71672732
 AE eigenvalue nl 30 =       -0.17593422
 ---------------------------------------
 PS eigenvalue nl 21 =       -1.71622098
 PS eigenvalue nl 30 =       -0.17592300
 ---------------------------------------

 Atomic calculation performed for Ca: 1s2 2s2 2p6 3s2 3p6 4s2

 Converged in 44 iterations to an ae energy of -18468.058 eV

   ============================================================                
   | Pseudopotential Report - Date of generation  1-05-2016   |                
   ------------------------------------------------------------                
   | Element: Ca Ionic charge: 10.00 Level of theory: LDA     |                
   |                                                          |                
   |               Reference Electronic Structure             |                
   |         Orbital         Occupation         Energy        |                
   |            3s              2.000           -1.721        |                
   |            3p              6.000           -1.028        |                
   |            4s              2.000           -0.142        |                
   |                                                          |                
   |                 Pseudopotential Definition               |                
   |        Beta     l      e      Rc     scheme   norm       |                
   |          1      0   -1.721   2.005     qc      0         |                
   |          2      0   -0.142   2.005     qc      0         |                
   |          3      1   -1.028   2.005     qc      0         |                
   |          4      1    0.250   2.005     qc      0         |                
   |          5      2    0.000   2.005     qc      0         |                
   |          6      2    1.000   2.005     qc      0         |                
   |         loc     3    0.000   1.601     pn      0         |                
   |                                                          |                
   | Augmentation charge Rinner = 1.401                       |                
   | Partial core correction Rc = 1.401                       |                
   ------------------------------------------------------------                
   | "3|1.6|2.0|1.4|7|9|10|30U:40U:31:32U=0U=1.0"             |                
   ------------------------------------------------------------                
   |      Author: Chris J. Pickard, Cambridge University      |                
   ============================================================                

 Pseudo atomic calculation performed for O 2s2 2p4

 Converged in 28 iterations to a total energy of -428.5589 eV


 Pseudo atomic calculation performed for Mg 2p6 3s2

 Converged in 23 iterations to a total energy of -1024.5020 eV


 Pseudo atomic calculation performed for Ca 3s2 3p6 4s2

 Converged in 24 iterations to a total energy of -1000.3898 eV

 Calculation parallelised over 2 processes.
 Data is distributed by k-point(2-way)

 ************************************ Title ************************************
 MgO

 ***************************** General Parameters ******************************
  
 output verbosity                               : normal  (1)
 write checkpoint data to                       : 27_0.check
 type of calculation                            : single point energy
 stress calculation                             : on
 density difference calculation                 : off
 electron localisation func (ELF) calculation   : off
 Hirshfeld analysis                             : off
 unlimited duration calculation
 timing information                             : on
 memory usage estimate                          : on
 write final potential to formatted file        : off
 write final density to formatted file          : off
 write BibTeX reference list                    : on
  
 output         length unit                     : A
 output           mass unit                     : amu
 output           time unit                     : ps
 output         charge unit                     : e
 output         energy unit                     : eV
 output          force unit                     : eV/A
 output       velocity unit                     : A/ps
 output       pressure unit                     : GPa
 output     inv_length unit                     : 1/A
 output      frequency unit                     : cm-1
 output force constant unit                     : eV/A**2
 output         volume unit                     : A**3
 output   IR intensity unit                     : (D/A)**2/amu
 output         dipole unit                     : D
 output         efield unit                     : eV/A/e
 output        entropy unit                     : J/mol/K
  
 wavefunctions paging                           : none
 random number generator seed                   : randomised (120210435)
 data distribution                              : optimal for this architecture
 optimization strategy                          : maximize speed(+++)

 *********************** Exchange-Correlation Parameters ***********************
  
 using functional                               : Local Density Approximation
 Divergence correction                          : off
 DFT+D: Semi-empirical dispersion correction    : off

 ************************* Pseudopotential Parameters **************************
  
 pseudopotential representation                 : reciprocal space
 <beta|phi> representation                      : reciprocal space

 **************************** Basis Set Parameters *****************************
  
 plane wave basis set cut-off                   :   280.0000   eV
 size of standard grid                          :     2.0000
 size of   fine   gmax                          :    17.1454   1/A
 largest prime factor in FFT                    :          5
 finite basis set correction                    : automatic
 number of sample energies                      :          3
           sample  spacing                      :     5.0000   eV

 **************************** Electronic Parameters ****************************
  
 number of  electrons                           :  200.0    
 net charge of system                           :  0.000    
 net spin   of system                           :  0.000    
 number of  up  spins                           :  100.0    
 number of down spins                           :  100.0    
 treating system as non-spin-polarized
 number of bands                                :        120

 ********************* Electronic Minimization Parameters **********************
  
 Method: Treating system as metallic with density mixing treatment of electrons,
         and number of  SD  steps               :          1
         and number of  CG  steps               :          4
  
 total energy / atom convergence tol.           : 0.1000E-06   eV
 eigen-energy convergence tolerance             : 0.2700E-07   eV
 max force / atom convergence tol.              : ignored
 convergence tolerance window                   :          3   cycles
 max. number of SCF cycles                      :         60
 number of fixed-spin iterations                :         10
 smearing scheme                                : Gaussian
 smearing width                                 : 0.2000       eV
 Fermi energy convergence tolerance             : 0.2700E-08   eV
 periodic dipole correction                     : NONE

 ************************** Density Mixing Parameters **************************
  
 density-mixing scheme                          : Pulay
 max. length of mixing history                  :         30
 charge density mixing amplitude                : 0.8000    
 cut-off energy for mixing                      :  280.0       eV
 charge density mixing g-vector                 :  1.500       1/A

 *********************** Population Analysis Parameters ************************
  
 Population analysis with cutoff                :  3.000       A

 *******************************************************************************
  

                           -------------------------------
                                      Unit Cell
                           -------------------------------
        Real Lattice(A)                      Reciprocal Lattice(1/A)
   4.2000000   0.0000000   0.0000000        1.4959965   0.0000000   0.0000000
   0.0000000   4.2000000   0.0000000        0.0000000   1.4959965   0.0000000
   0.0000000   0.0000000   4.2000000        0.0000000   0.0000000   1.4959965

                       Lattice parameters(A)       Cell Angles
                    a =    4.200000          alpha =   90.000000
                    b =    4.200000          beta  =   90.000000
                    c =    4.200000          gamma =   90.000000

                       Current cell volume =   74.088000       A**3

                           -------------------------------
                                     Cell Contents
                           -------------------------------
                         Total number of ions in cell =   27
                      Total number of species in cell =    3
                        Max number of any one species =   13

            xxxxxxxxxxxxxxxxxxxxxxxxxxxxxxxxxxxxxxxxxxxxxxxxxxxxxxxxxxxx
            x  Element    Atom        Fractional coordinates of atoms  x
            x            Number           u          v          w      x
            x----------------------------------------------------------x
            x  O            1         0.500000   0.000000   0.000000   x
            x  O            2         0.000000   0.500000   0.000000   x
            x  O            3         1.000000   0.500000   0.000000   x
            x  O            4         0.500000   1.000000   0.000000   x
            x  O            5         0.000000   0.000000   0.500000   x
            x  O            6         1.000000   0.000000   0.500000   x
            x  O            7         0.500000   0.500000   0.500000   x
            x  O            8         0.000000   1.000000   0.500000   x
            x  O            9         1.000000   1.000000   0.500000   x
            x  O           10         0.500000   0.000000   1.000000   x
            x  O           11         0.000000   0.500000   1.000000   x
            x  O           12         1.000000   0.500000   1.000000   x
            x  O           13         0.500000   1.000000   1.000000   x
            x  Mg           1         0.000000   0.000000   0.000000   x
            x  Mg           2         1.000000   0.000000   0.000000   x
            x  Mg           3         0.500000   0.500000   0.000000   x
            x  Mg           4         0.000000   1.000000   0.000000   x
            x  Mg           5         1.000000   1.000000   0.000000   x
            x  Mg           6         0.500000   0.000000   0.500000   x
            x  Mg           7         0.000000   0.500000   0.500000   x
            x  Mg           8         1.000000   0.500000   0.500000   x
            x  Mg           9         0.500000   1.000000   0.500000   x
            x  Ca           1         0.000000   0.000000   1.000000   x
            x  Ca           2         1.000000   0.000000   1.000000   x
            x  Ca           3         0.500000   0.500000   1.000000   x
            x  Ca           4         0.000000   1.000000   1.000000   x
            x  Ca           5         1.000000   1.000000   1.000000   x
            xxxxxxxxxxxxxxxxxxxxxxxxxxxxxxxxxxxxxxxxxxxxxxxxxxxxxxxxxxxx

       **********  Atom Position W A R N I N G: Overlapping atoms! *********
       *                                                                   *
       *   Atoms: O    1 and O    4 are VERY close: distance= 0.000 Bohr   *
       *   Atoms: O    1 and O   10 are VERY close: distance= 0.000 Bohr   *
       *   Atoms: O    1 and O   13 are VERY close: distance= 0.000 Bohr   *
       *   Atoms: O    2 and O    3 are VERY close: distance= 0.000 Bohr   *
       *   Atoms: O    2 and O   11 are VERY close: distance= 0.000 Bohr   *
       *   Atoms: O    2 and O   12 are VERY close: distance= 0.000 Bohr   *
       *   Atoms: O    3 and O    2 are VERY close: distance= 0.000 Bohr   *
       *   Atoms: O    3 and O   11 are VERY close: distance= 0.000 Bohr   *
       *   Atoms: O    3 and O   12 are VERY close: distance= 0.000 Bohr   *
       *   Atoms: O    4 and O    1 are VERY close: distance= 0.000 Bohr   *
       *   Atoms: O    4 and O   10 are VERY close: distance= 0.000 Bohr   *
       *   Atoms: O    4 and O   13 are VERY close: distance= 0.000 Bohr   *
       *   Atoms: O    5 and O    6 are VERY close: distance= 0.000 Bohr   *
       *   Atoms: O    5 and O    8 are VERY close: distance= 0.000 Bohr   *
       *   Atoms: O    5 and O    9 are VERY close: distance= 0.000 Bohr   *
       *   Atoms: O    6 and O    5 are VERY close: distance= 0.000 Bohr   *
       *   Atoms: O    6 and O    8 are VERY close: distance= 0.000 Bohr   *
       *   Atoms: O    6 and O    9 are VERY close: distance= 0.000 Bohr   *
       *   Atoms: O    8 and O    5 are VERY close: distance= 0.000 Bohr   *
       *   Atoms: O    8 and O    6 are VERY close: distance= 0.000 Bohr   *
       *   Atoms: O    8 and O    9 are VERY close: distance= 0.000 Bohr   *
       *   Atoms: O    9 and O    5 are VERY close: distance= 0.000 Bohr   *
       *   Atoms: O    9 and O    6 are VERY close: distance= 0.000 Bohr   *
       *   Atoms: O    9 and O    8 are VERY close: distance= 0.000 Bohr   *
       *   Atoms: O   10 and O    1 are VERY close: distance= 0.000 Bohr   *
       *   Atoms: O   10 and O    4 are VERY close: distance= 0.000 Bohr   *
       *   Atoms: O   10 and O   13 are VERY close: distance= 0.000 Bohr   *
       *   Atoms: O   11 and O    2 are VERY close: distance= 0.000 Bohr   *
       *   Atoms: O   11 and O    3 are VERY close: distance= 0.000 Bohr   *
       *   Atoms: O   11 and O   12 are VERY close: distance= 0.000 Bohr   *
       *   Atoms: O   12 and O    2 are VERY close: distance= 0.000 Bohr   *
       *   Atoms: O   12 and O    3 are VERY close: distance= 0.000 Bohr   *
       *   Atoms: O   12 and O   11 are VERY close: distance= 0.000 Bohr   *
       *   Atoms: O   13 and O    1 are VERY close: distance= 0.000 Bohr   *
       *   Atoms: O   13 and O    4 are VERY close: distance= 0.000 Bohr   *
       *   Atoms: O   13 and O   10 are VERY close: distance= 0.000 Bohr   *
       *   Atoms: Mg   1 and Mg   2 are VERY close: distance= 0.000 Bohr   *
       *   Atoms: Mg   1 and Mg   4 are VERY close: distance= 0.000 Bohr   *
       *   Atoms: Mg   1 and Mg   5 are VERY close: distance= 0.000 Bohr   *
       *   Atoms: Mg   1 and Ca   1 are VERY close: distance= 0.000 Bohr   *
       *   Atoms: Mg   1 and Ca   2 are VERY close: distance= 0.000 Bohr   *
       *   Atoms: Mg   1 and Ca   4 are VERY close: distance= 0.000 Bohr   *
       *   Atoms: Mg   1 and Ca   5 are VERY close: distance= 0.000 Bohr   *
       *   Atoms: Mg   2 and Mg   1 are VERY close: distance= 0.000 Bohr   *
       *   Atoms: Mg   2 and Mg   4 are VERY close: distance= 0.000 Bohr   *
       *   Atoms: Mg   2 and Mg   5 are VERY close: distance= 0.000 Bohr   *
       *   Atoms: Mg   2 and Ca   1 are VERY close: distance= 0.000 Bohr   *
       *   Atoms: Mg   2 and Ca   2 are VERY close: distance= 0.000 Bohr   *
       *   Atoms: Mg   2 and Ca   4 are VERY close: distance= 0.000 Bohr   *
       *   Atoms: Mg   2 and Ca   5 are VERY close: distance= 0.000 Bohr   *
       *   Atoms: Mg   3 and Ca   3 are VERY close: distance= 0.000 Bohr   *
       *   Atoms: Mg   4 and Mg   1 are VERY close: distance= 0.000 Bohr   *
       *   Atoms: Mg   4 and Mg   2 are VERY close: distance= 0.000 Bohr   *
       *   Atoms: Mg   4 and Mg   5 are VERY close: distance= 0.000 Bohr   *
       *   Atoms: Mg   4 and Ca   1 are VERY close: distance= 0.000 Bohr   *
       *   Atoms: Mg   4 and Ca   2 are VERY close: distance= 0.000 Bohr   *
       *   Atoms: Mg   4 and Ca   4 are VERY close: distance= 0.000 Bohr   *
       *   Atoms: Mg   4 and Ca   5 are VERY close: distance= 0.000 Bohr   *
       *   Atoms: Mg   5 and Mg   1 are VERY close: distance= 0.000 Bohr   *
       *   Atoms: Mg   5 and Mg   2 are VERY close: distance= 0.000 Bohr   *
       *   Atoms: Mg   5 and Mg   4 are VERY close: distance= 0.000 Bohr   *
       *   Atoms: Mg   5 and Ca   1 are VERY close: distance= 0.000 Bohr   *
       *   Atoms: Mg   5 and Ca   2 are VERY close: distance= 0.000 Bohr   *
       *   Atoms: Mg   5 and Ca   4 are VERY close: distance= 0.000 Bohr   *
       *   Atoms: Mg   5 and Ca   5 are VERY close: distance= 0.000 Bohr   *
       *   Atoms: Mg   6 and Mg   9 are VERY close: distance= 0.000 Bohr   *
       *   Atoms: Mg   7 and Mg   8 are VERY close: distance= 0.000 Bohr   *
       *   Atoms: Mg   8 and Mg   7 are VERY close: distance= 0.000 Bohr   *
       *   Atoms: Mg   9 and Mg   6 are VERY close: distance= 0.000 Bohr   *
       *   Atoms: Ca   1 and Mg   1 are VERY close: distance= 0.000 Bohr   *
       *   Atoms: Ca   1 and Mg   2 are VERY close: distance= 0.000 Bohr   *
       *   Atoms: Ca   1 and Mg   4 are VERY close: distance= 0.000 Bohr   *
       *   Atoms: Ca   1 and Mg   5 are VERY close: distance= 0.000 Bohr   *
       *   Atoms: Ca   1 and Ca   2 are VERY close: distance= 0.000 Bohr   *
       *   Atoms: Ca   1 and Ca   4 are VERY close: distance= 0.000 Bohr   *
       *   Atoms: Ca   1 and Ca   5 are VERY close: distance= 0.000 Bohr   *
       *   Atoms: Ca   2 and Mg   1 are VERY close: distance= 0.000 Bohr   *
       *   Atoms: Ca   2 and Mg   2 are VERY close: distance= 0.000 Bohr   *
       *   Atoms: Ca   2 and Mg   4 are VERY close: distance= 0.000 Bohr   *
       *   Atoms: Ca   2 and Mg   5 are VERY close: distance= 0.000 Bohr   *
       *   Atoms: Ca   2 and Ca   1 are VERY close: distance= 0.000 Bohr   *
       *   Atoms: Ca   2 and Ca   4 are VERY close: distance= 0.000 Bohr   *
       *   Atoms: Ca   2 and Ca   5 are VERY close: distance= 0.000 Bohr   *
       *   Atoms: Ca   3 and Mg   3 are VERY close: distance= 0.000 Bohr   *
       *   Atoms: Ca   4 and Mg   1 are VERY close: distance= 0.000 Bohr   *
       *   Atoms: Ca   4 and Mg   2 are VERY close: distance= 0.000 Bohr   *
       *   Atoms: Ca   4 and Mg   4 are VERY close: distance= 0.000 Bohr   *
       *   Atoms: Ca   4 and Mg   5 are VERY close: distance= 0.000 Bohr   *
       *   Atoms: Ca   4 and Ca   1 are VERY close: distance= 0.000 Bohr   *
       *   Atoms: Ca   4 and Ca   2 are VERY close: distance= 0.000 Bohr   *
       *   Atoms: Ca   4 and Ca   5 are VERY close: distance= 0.000 Bohr   *
       *   Atoms: Ca   5 and Mg   1 are VERY close: distance= 0.000 Bohr   *
       *   Atoms: Ca   5 and Mg   2 are VERY close: distance= 0.000 Bohr   *
       *   Atoms: Ca   5 and Mg   4 are VERY close: distance= 0.000 Bohr   *
       *   Atoms: Ca   5 and Mg   5 are VERY close: distance= 0.000 Bohr   *
       *   Atoms: Ca   5 and Ca   1 are VERY close: distance= 0.000 Bohr   *
       *   Atoms: Ca   5 and Ca   2 are VERY close: distance= 0.000 Bohr   *
       *   Atoms: Ca   5 and Ca   4 are VERY close: distance= 0.000 Bohr   *
       *                                                                   *
       *********************************************************************

                         No user defined ionic velocities

                           -------------------------------
                                   Details of Species
                           -------------------------------

                               Mass of species in AMU
                                    O   15.9994000
                                    Mg   24.3050000
                                    Ca   40.0780000

                          Electric Quadrupole Moment (Barn)
                                    O   -0.0255800 Isotope 17
                                    Mg    0.1994000 Isotope 25
                                    Ca   -0.0408000 Isotope 43

                          Files used for pseudopotentials:
                                    O Pseudopotential generated on-the-fly
                                    Mg Pseudopotential generated on-the-fly
                                    Ca Pseudopotential generated on-the-fly

                           -------------------------------
                              k-Points For BZ Sampling
                           -------------------------------
                       MP grid size for SCF calculation is  3  3  3
                         Number of kpoints used =          14

             +++++++++++++++++++++++++++++++++++++++++++++++++++++++
             +  Number       Fractional coordinates        Weight  +
             +-----------------------------------------------------+
             +     1  -0.333333  -0.333333   0.000000   0.0740741  +
             +     2  -0.333333   0.000000  -0.333333   0.0740741  +
             +     3  -0.333333   0.000000   0.000000   0.0740741  +
             +     4  -0.333333   0.000000   0.333333   0.0740741  +
             +     5  -0.333333   0.333333   0.000000   0.0740741  +
             +     6   0.000000   0.000000  -0.333333   0.0740741  +
             +     7   0.000000   0.000000   0.000000   0.0370370  +
             +     8   0.000000   0.333333  -0.333333   0.0740741  +
             +     9   0.000000   0.333333   0.000000   0.0740741  +
             +    10   0.000000   0.333333   0.333333   0.0740741  +
             +    11   0.333333  -0.333333  -0.333333   0.0740741  +
             +    12   0.333333  -0.333333   0.333333   0.0740741  +
             +    13   0.333333   0.333333  -0.333333   0.0740741  +
             +    14   0.333333   0.333333   0.333333   0.0740741  +
             +++++++++++++++++++++++++++++++++++++++++++++++++++++++

                           -------------------------------
                               Symmetry and Constraints
                           -------------------------------

         There are no symmetry operations specified or generated for this cell
                      Number of ionic constraints     =           3
                      Maximum deviation from symmetry =  0.00000         ANG
               Point group of crystal =     1: C1, 1, 1

                          Centre of mass is constrained
             Set iprint > 1 for details of linear ionic constraints

                         Number of cell constraints= 5
                         Cell constraints are:  1 1 1 0 0 0

                         External pressure/stress (GPa)
                          0.00000   0.00000   0.00000
                                    0.00000   0.00000
                                              0.00000
  
+---------------- MEMORY AND SCRATCH DISK ESTIMATES PER NODE -----------------+
|                                                     Memory          Disk    |
| Model and support data                              101.0 MB         0.0 MB |
| Electronic energy minimisation requirements          32.4 MB         0.0 MB |
|                                               ----------------------------- |
| Approx. total storage required per node             133.4 MB         0.0 MB |
|                                                                             |
| Requirements will fluctuate during execution and may exceed these estimates |
+-----------------------------------------------------------------------------+
Calculating finite basis set correction with  3 cut-off energies.
Calculating total energy with cut-off of  270.000eV.
------------------------------------------------------------------------ <-- SCF
SCF loop      Energy           Fermi           Energy gain       Timer   <-- SCF
                               energy          per atom          (sec)   <-- SCF
------------------------------------------------------------------------ <-- SCF
Initial  -7.67015591E+004  0.00000000E+000                        69.72  <-- SCF
