 +-------------------------------------------------+
 |                                                 |
 |      CCC   AA    SSS  TTTTT  EEEEE  PPPP        |
 |     C     A  A  S       T    E      P   P       |
 |     C     AAAA   SS     T    EEE    PPPP        |
 |     C     A  A     S    T    E      P           |
 |      CCC  A  A  SSS     T    EEEEE  P           |
 |                                                 |
 +-------------------------------------------------+
 |                                                 |
 | Welcome to Academic Release CASTEP version 6.1  |
 | Ab Initio Total Energy Program                  |
 |                                                 |
 | Authors:                                        |
 | M. Segall, M. Probert, C. Pickard, P. Hasnip,   |
 | S. Clark, K. Refson, J. R. Yates, M. Payne      |
 |                                                 |
 | Contributors:                                   |
 | P. Lindan, P. Haynes, J. White, V. Milman,      |
 | N. Govind, M. Gibson, P. Tulip, V. Cocula,      |
 | B. Montanari, D. Quigley, M. Glover,            |
 | L. Bernasconi, A. Perlov, M. Plummer,           |
 | E. McNellis, J. Meyer, J. Gale, D. Jochym       |
 | J. Aarons, B. Walker, R. Gillen                 |
 |                                                 |
 | Copyright (c) 2000 - 2012                       |
 |                                                 |
 |     Distributed under the terms of an           |
 |     Agreement between the United Kingdom        |
 |     Car-Parrinello (UKCP) Consortium,           |
 |     Daresbury Laboratory and Accelrys, Inc.     |
 |                                                 |
 | Please cite                                     |
 |                                                 |
 |     "First principles methods using CASTEP"     |
 |                                                 |
 |         Zeitschrift fuer Kristallographie       |
 |           220(5-6) pp. 567-570 (2005)           |
 |                                                 |
 | S. J. Clark, M. D. Segall, C. J. Pickard,       |
 | P. J. Hasnip, M. J. Probert, K. Refson,         |
 | M. C. Payne                                     |
 |                                                 |
 |       in all publications arising from          |
 |              your use of CASTEP                 |
 |                                                 |
 +-------------------------------------------------+


 Compiled for linux_x86_64_gfortran on Wed Nov 21 15:08:09 2012
 from source code version eaed21d6e002+  2012-10-31
 using fast optimisation, fftw3 FFTs and openblas LAPACK and BLAS.


 Atomic calculation performed for O: 1s2 2s2 2p4

 Converged in 60 iterations to an ae energy of -2027.926 eV

   ============================================================                
   | Pseudopotential Report - Date of generation  6-05-2016   |                
   ------------------------------------------------------------                
   | Element: O Ionic charge:  6.00 Level of theory: LDA      |                
   |                                                          |                
   |               Reference Electronic Structure             |                
   |         Orbital         Occupation         Energy        |                
   |            2s              2.000           -0.873        |                
   |            2p              4.000           -0.338        |                
   |                                                          |                
   |                 Pseudopotential Definition               |                
   |        Beta     l      e      Rc     scheme   norm       |                
   |          1      0   -0.873   1.300     qc      0         |                
   |          2      0    0.250   1.300     qc      0         |                
   |          3      1   -0.338   1.300     qc      0         |                
   |          4      1    0.250   1.300     qc      0         |                
   |         loc     2    0.000   1.004     pn      0         |                
   |                                                          |                
   | Augmentation charge Rinner = 0.701                       |                
   | Partial core correction Rc = 0.701                       |                
   ------------------------------------------------------------                
   | "2|1.0|1.3|0.7|13|16|18|20:21(qc=7)"                     |                
   ------------------------------------------------------------                
   |      Author: Chris J. Pickard, Cambridge University      |                
   ============================================================                

 Atomic calculation performed for Mg: 1s2 2s2 2p6 3s2

 Converged in 47 iterations to an ae energy of -5427.407 eV

 Identity difference:   5.17267234911703770E-004

   ============================================================                
   | Pseudopotential Report - Date of generation  6-05-2016   |                
   ------------------------------------------------------------                
   | Element: Mg Ionic charge:  8.00 Level of theory: LDA     |                
   |                                                          |                
   |               Reference Electronic Structure             |                
   |         Orbital         Occupation         Energy        |                
   |            2p              6.000           -1.717        |                
   |            3s              2.000           -0.176        |                
   |                                                          |                
   |                 Pseudopotential Definition               |                
   |        Beta     l      e      Rc     scheme   norm       |                
   |          1      0   -0.176   1.994     qc      1         |                
   |          2      1   -1.717   1.994     qc      0         |                
   |          3      1    0.000   1.994     qc      0         |                
   |          4      1    0.250   1.994     qc      0         |                
   |         loc     2    0.000   1.605     pn      0         |                
   |                                                          |                
   | Augmentation charge Rinner = 1.405                       |                
   | Partial core correction Rc = 1.405                       |                
   ------------------------------------------------------------                
   | "2|1.6|2|1.4|6|7|8|30NH:21U:31UU:32LGG(qc=4.5)[]"        |                
   ------------------------------------------------------------                
   |      Author: Chris J. Pickard, Cambridge University      |                
   ============================================================                

 Doing a self consistent calculation for the test configuration

 Atomic calculation performed for Mg: 1s2 2s2 2p6 3s2

 Converged in 47 iterations to an ae energy of -5427.407 eV

 ---------------------------------------
 AE eigenvalue nl 10 =      -46.06264936
 AE eigenvalue nl 20 =       -2.91364591
 AE eigenvalue nl 21 =       -1.71672732
 AE eigenvalue nl 30 =       -0.17593422
 ---------------------------------------
 PS eigenvalue nl 21 =       -1.71622098
 PS eigenvalue nl 30 =       -0.17592300
 ---------------------------------------

 Atomic calculation performed for Ca: 1s2 2s2 2p6 3s2 3p6 4s2

 Converged in 44 iterations to an ae energy of -18468.058 eV

   ============================================================                
   | Pseudopotential Report - Date of generation  6-05-2016   |                
   ------------------------------------------------------------                
   | Element: Ca Ionic charge: 10.00 Level of theory: LDA     |                
   |                                                          |                
   |               Reference Electronic Structure             |                
   |         Orbital         Occupation         Energy        |                
   |            3s              2.000           -1.721        |                
   |            3p              6.000           -1.028        |                
   |            4s              2.000           -0.142        |                
   |                                                          |                
   |                 Pseudopotential Definition               |                
   |        Beta     l      e      Rc     scheme   norm       |                
   |          1      0   -1.721   2.005     qc      0         |                
   |          2      0   -0.142   2.005     qc      0         |                
   |          3      1   -1.028   2.005     qc      0         |                
   |          4      1    0.250   2.005     qc      0         |                
   |          5      2    0.000   2.005     qc      0         |                
   |          6      2    1.000   2.005     qc      0         |                
   |         loc     3    0.000   1.601     pn      0         |                
   |                                                          |                
   | Augmentation charge Rinner = 1.401                       |                
   | Partial core correction Rc = 1.401                       |                
   ------------------------------------------------------------                
   | "3|1.6|2.0|1.4|7|9|10|30U:40U:31:32U=0U=1.0"             |                
   ------------------------------------------------------------                
   |      Author: Chris J. Pickard, Cambridge University      |                
   ============================================================                

 Pseudo atomic calculation performed for O 2s2 2p4

 Converged in 30 iterations to a total energy of -432.5600 eV


 Pseudo atomic calculation performed for Mg 2p6 3s2

 Converged in 23 iterations to a total energy of -1024.6674 eV


 Pseudo atomic calculation performed for Ca 3s2 3p6 4s2

 Converged in 24 iterations to a total energy of -1000.4575 eV

 Calculation parallelised over 2 processes.
 Data is distributed by k-point(2-way)

 ************************************ Title ************************************
 MgO

 ***************************** General Parameters ******************************
  
 output verbosity                               : normal  (1)
 write checkpoint data to                       : test_2.check
 type of calculation                            : geometry optimization
 stress calculation                             : on
 density difference calculation                 : off
 electron localisation func (ELF) calculation   : off
 Hirshfeld analysis                             : off
 unlimited duration calculation
 timing information                             : on
 memory usage estimate                          : on
 write final potential to formatted file        : off
 write final density to formatted file          : off
 write BibTeX reference list                    : on
  
 output         length unit                     : A
 output           mass unit                     : amu
 output           time unit                     : ps
 output         charge unit                     : e
 output         energy unit                     : eV
 output          force unit                     : eV/A
 output       velocity unit                     : A/ps
 output       pressure unit                     : GPa
 output     inv_length unit                     : 1/A
 output      frequency unit                     : cm-1
 output force constant unit                     : eV/A**2
 output         volume unit                     : A**3
 output   IR intensity unit                     : (D/A)**2/amu
 output         dipole unit                     : D
 output         efield unit                     : eV/A/e
 output        entropy unit                     : J/mol/K
  
 wavefunctions paging                           : none
 random number generator seed                   : randomised (12239950)
 data distribution                              : optimal for this architecture
 optimization strategy                          : maximize speed(+++)

 *********************** Exchange-Correlation Parameters ***********************
  
 using functional                               : Local Density Approximation
 Divergence correction                          : off
 DFT+D: Semi-empirical dispersion correction    : off

 ************************* Pseudopotential Parameters **************************
  
 pseudopotential representation                 : reciprocal space
 <beta|phi> representation                      : reciprocal space

 **************************** Basis Set Parameters *****************************
  
 plane wave basis set cut-off                   :   450.0000   eV
 size of standard grid                          :     2.0000
 size of   fine   gmax                          :    21.7358   1/A
 largest prime factor in FFT                    :          5
 finite basis set correction                    : automatic
 number of sample energies                      :          3
           sample  spacing                      :     5.0000   eV

 **************************** Electronic Parameters ****************************
  
 number of  electrons                           :  200.0    
 net charge of system                           :  0.000    
 net spin   of system                           :  0.000    
 number of  up  spins                           :  100.0    
 number of down spins                           :  100.0    
 treating system as non-spin-polarized
 number of bands                                :        120

 ********************* Electronic Minimization Parameters **********************
  
 Method: Treating system as metallic with density mixing treatment of electrons,
         and number of  SD  steps               :          1
         and number of  CG  steps               :          4
  
 total energy / atom convergence tol.           : 0.1000E-06   eV
 eigen-energy convergence tolerance             : 0.2700E-07   eV
 max force / atom convergence tol.              : ignored
 convergence tolerance window                   :          3   cycles
 max. number of SCF cycles                      :         60
 number of fixed-spin iterations                :         10
 smearing scheme                                : Gaussian
 smearing width                                 : 0.2000       eV
 Fermi energy convergence tolerance             : 0.2700E-08   eV
 periodic dipole correction                     : NONE

 ************************** Density Mixing Parameters **************************
  
 density-mixing scheme                          : Pulay
 max. length of mixing history                  :         30
 charge density mixing amplitude                : 0.8000    
 cut-off energy for mixing                      :  450.0       eV
 charge density mixing g-vector                 :  1.500       1/A

 *********************** Population Analysis Parameters ************************
  
 Population analysis with cutoff                :  3.000       A

 ********************** Geometry Optimization Parameters ***********************
  
 optimization method                            : BFGS
 variable cell method                           : fixed basis quality
 max. number of steps                           :         30
 estimated bulk modulus                         :  500.0       GPa
 estimated <frequency>                          :  1668.       cm-1
 geom line minimiser                            : on
 with line minimiser tolerance                  :     0.4000
 total energy convergence tolerance             : 0.2000E-04   eV/atom
        max ionic |force| tolerance             : 0.5000E-01   eV/A
 max ionic |displacement| tolerance             : 0.1000E-02   A
   max |stress component| tolerance             : 0.1000       GPa
 convergence tolerance window                   :          2   steps
 backup results every                           :          5   steps

 *******************************************************************************
  

                           -------------------------------
                                      Unit Cell
                           -------------------------------
        Real Lattice(A)                      Reciprocal Lattice(1/A)
   8.4000000   0.0000000   0.0000000        0.7479983   0.0000000   0.0000000
   0.0000000   8.4000000   0.0000000        0.0000000   0.7479983   0.0000000
   0.0000000   0.0000000   8.4000000        0.0000000   0.0000000   0.7479983

                       Lattice parameters(A)       Cell Angles
                    a =    8.400000          alpha =   90.000000
                    b =    8.400000          beta  =   90.000000
                    c =    8.400000          gamma =   90.000000

                       Current cell volume =  592.704000       A**3

                           -------------------------------
                                     Cell Contents
                           -------------------------------
                         Total number of ions in cell =   27
                      Total number of species in cell =    3
                        Max number of any one species =   14

            xxxxxxxxxxxxxxxxxxxxxxxxxxxxxxxxxxxxxxxxxxxxxxxxxxxxxxxxxxxx
            x  Element    Atom        Fractional coordinates of atoms  x
            x            Number           u          v          w      x
            x----------------------------------------------------------x
            x  O            1         0.000000   0.000000   0.000000   x
            x  O            2         0.666667   0.000000   0.000000   x
            x  O            3         0.333333   0.333333   0.000000   x
            x  O            4         0.000000   0.666667   0.000000   x
            x  O            5         0.666667   0.666667   0.000000   x
            x  O            6         0.333333   0.000000   0.333333   x
            x  O            7         0.000000   0.333333   0.333333   x
            x  O            8         0.666667   0.333333   0.333333   x
            x  O            9         0.333333   0.666667   0.333333   x
            x  O           10         0.000000   0.000000   0.666667   x
            x  O           11         0.666667   0.000000   0.666667   x
            x  O           12         0.333333   0.333333   0.666667   x
            x  O           13         0.000000   0.666667   0.666667   x
            x  O           14         0.666667   0.666667   0.666667   x
            x  Mg           1         0.333333   0.000000   0.000000   x
            x  Mg           2         0.000000   0.333333   0.000000   x
            x  Mg           3         0.666667   0.333333   0.000000   x
            x  Mg           4         0.333333   0.666667   0.000000   x
            x  Mg           5         0.666667   0.000000   0.333333   x
            x  Mg           6         0.333333   0.333333   0.333333   x
            x  Mg           7         0.666667   0.666667   0.333333   x
            x  Ca           1         0.000000   0.000000   0.333333   x
            x  Ca           2         0.000000   0.666667   0.333333   x
            x  Ca           3         0.333333   0.000000   0.666667   x
            x  Ca           4         0.000000   0.333333   0.666667   x
            x  Ca           5         0.666667   0.333333   0.666667   x
            x  Ca           6         0.333333   0.666667   0.666667   x
            xxxxxxxxxxxxxxxxxxxxxxxxxxxxxxxxxxxxxxxxxxxxxxxxxxxxxxxxxxxx


                         No user defined ionic velocities

                           -------------------------------
                                   Details of Species
                           -------------------------------

                               Mass of species in AMU
                                    O   15.9994000
                                    Mg   24.3050000
                                    Ca   40.0780000

                          Electric Quadrupole Moment (Barn)
                                    O   -0.0255800 Isotope 17
                                    Mg    0.1994000 Isotope 25
                                    Ca   -0.0408000 Isotope 43

                          Files used for pseudopotentials:
                                    O Pseudopotential generated on-the-fly
                                    Mg Pseudopotential generated on-the-fly
                                    Ca Pseudopotential generated on-the-fly

                           -------------------------------
                              k-Points For BZ Sampling
                           -------------------------------
                       MP grid size for SCF calculation is  3  3  3
                         Number of kpoints used =          10

             +++++++++++++++++++++++++++++++++++++++++++++++++++++++
             +  Number       Fractional coordinates        Weight  +
             +-----------------------------------------------------+
             +     1  -0.333333  -0.333333   0.000000   0.1481481  +
             +     2  -0.333333   0.000000  -0.333333   0.0740741  +
             +     3  -0.333333   0.000000   0.000000   0.0740741  +
             +     4  -0.333333   0.000000   0.333333   0.0740741  +
             +     5   0.000000   0.000000  -0.333333   0.0740741  +
             +     6   0.000000   0.000000   0.000000   0.0370370  +
             +     7   0.000000   0.333333  -0.333333   0.1481481  +
             +     8   0.000000   0.333333   0.000000   0.0740741  +
             +     9   0.333333  -0.333333  -0.333333   0.1481481  +
             +    10   0.333333   0.333333   0.333333   0.1481481  +
             +++++++++++++++++++++++++++++++++++++++++++++++++++++++

                           -------------------------------
                               Symmetry and Constraints
                           -------------------------------

                      Number of symmetry operations   =           2
                      Number of ionic constraints     =           3
                      Maximum deviation from symmetry = 0.839999E-09     ANG
               Point group of crystal =     3: Cs, m, m
           Set iprint > 1 for details on symmetry rotations/translations

                          Centre of mass is constrained
             Set iprint > 1 for details of linear ionic constraints

                         Number of cell constraints= 5
                         Cell constraints are:  1 1 1 0 0 0

                         External pressure/stress (GPa)
                          0.00000   0.00000   0.00000
                                    0.00000   0.00000
                                              0.00000
  
+---------------- MEMORY AND SCRATCH DISK ESTIMATES PER NODE -----------------+
|                                                     Memory          Disk    |
| Model and support data                              711.0 MB         0.0 MB |
| Electronic energy minimisation requirements         286.4 MB         0.0 MB |
|                                               ----------------------------- |
| Approx. total storage required per node             997.4 MB         0.0 MB |
|                                                                             |
| Requirements will fluctuate during execution and may exceed these estimates |
+-----------------------------------------------------------------------------+
Calculating finite basis set correction with  3 cut-off energies.
Calculating total energy with cut-off of  440.000eV.
------------------------------------------------------------------------ <-- SCF
SCF loop      Energy           Fermi           Energy gain       Timer   <-- SCF
                               energy          per atom          (sec)   <-- SCF
------------------------------------------------------------------------ <-- SCF
Initial  -1.68403720E+004  0.00000000E+000                        48.40  <-- SCF
      1  -1.86490403E+004  4.24463543E+000   6.69877147E+001     190.19  <-- SCF
      2  -1.93422561E+004 -6.10553846E-001   2.56746600E+001     287.12  <-- SCF
      3  -1.93755854E+004 -1.29203527E+000   1.23441825E+000     381.59  <-- SCF
      4  -1.94502964E+004  3.68358599E+000   2.76707393E+000     524.11  <-- SCF
      5  -1.94578855E+004  3.55073398E+000   2.81077363E-001     646.37  <-- SCF
      6  -1.93482231E+004  1.45354208E+000  -4.06157042E+000     791.54  <-- SCF
      7  -1.93549449E+004  1.44554586E+000   2.48954991E-001     899.13  <-- SCF
      8  -1.93479901E+004  6.84253887E-001  -2.57585681E-001    1034.98  <-- SCF
      9  -1.93464370E+004  8.42284748E-001  -5.75204600E-002    1158.68  <-- SCF
     10  -1.93444061E+004  7.41388688E-001  -7.52179976E-002    1281.49  <-- SCF
     11  -1.93435676E+004  7.57450073E-001  -3.10580366E-002    1399.87  <-- SCF
     12  -1.93427526E+004  8.61590629E-001  -3.01851655E-002    1537.70  <-- SCF
     13  -1.93426299E+004  8.31637918E-001  -4.54422469E-003    1670.56  <-- SCF
     14  -1.93421872E+004  8.90971607E-001  -1.63936348E-002    1790.44  <-- SCF
     15  -1.93420883E+004  9.18308110E-001  -3.66613103E-003    1915.52  <-- SCF
     16  -1.93420318E+004  9.15460373E-001  -2.08944646E-003    2045.18  <-- SCF
     17  -1.93420257E+004  9.21279622E-001  -2.26967768E-004    2189.23  <-- SCF
     18  -1.93420261E+004  9.24695448E-001   1.51047976E-005    2309.16  <-- SCF
     19  -1.93420120E+004  9.23566583E-001  -5.23896315E-004    2422.35  <-- SCF
     20  -1.93420126E+004  9.24449717E-001   2.27960705E-005    2544.45  <-- SCF
     21  -1.93420125E+004  9.25010039E-001  -4.27929822E-006    2641.27  <-- SCF
     22  -1.93420124E+004  9.25088003E-001  -2.11139731E-006    2757.74  <-- SCF
     23  -1.93420124E+004  9.25104081E-001  -3.41780827E-007    2852.68  <-- SCF
     24  -1.93420124E+004  9.25199810E-001  -1.58538909E-008    2933.63  <-- SCF
     25  -1.93420124E+004  9.25247872E-001   5.27248515E-009    3008.46  <-- SCF
------------------------------------------------------------------------ <-- SCF
 
Final energy, E             =  -19341.30060957     eV
Final free energy (E-TS)    =  -19342.01241713     eV
(energies not corrected for finite basis set)
 
NB est. 0K energy (E-0.5TS)      =  -19341.65651335     eV
 
Calculating total energy with cut-off of  445.000eV.
------------------------------------------------------------------------ <-- SCF
SCF loop      Energy           Fermi           Energy gain       Timer   <-- SCF
                               energy          per atom          (sec)   <-- SCF
------------------------------------------------------------------------ <-- SCF
Initial  -1.93413006E+004  0.00000000E+000                      3049.71  <-- SCF
      1  -1.93423961E+004  9.19992450E-001   4.05746818E-002    3142.54  <-- SCF
      2  -1.93423963E+004  9.19993813E-001   4.69105436E-006    3245.66  <-- SCF
      3  -1.93424028E+004  9.43277331E-001   2.43546199E-004    3362.52  <-- SCF
      4  -1.93423972E+004  9.34323198E-001  -2.10068612E-004    3590.19  <-- SCF
      5  -1.93423962E+004  9.22947867E-001  -3.50789965E-005    3707.42  <-- SCF
      6  -1.93423963E+004  9.23265045E-001   2.81395180E-006    3823.07  <-- SCF
      7  -1.93423963E+004  9.24667348E-001  -5.92389148E-007    3932.22  <-- SCF
      8  -1.93423961E+004  9.25146414E-001  -7.62435519E-006    4027.24  <-- SCF
      9  -1.93423960E+004  9.25492228E-001  -1.24975910E-006    4124.05  <-- SCF
     10  -1.93423960E+004  9.25833435E-001  -2.14734066E-007    4201.27  <-- SCF
     11  -1.93423960E+004  9.25648242E-001  -2.90938932E-007    4274.31  <-- SCF
     12  -1.93423960E+004  9.25682368E-001   3.13074960E-007    4349.00  <-- SCF
     13  -1.93423960E+004  9.25612645E-001  -3.05409078E-007    4425.90  <-- SCF
     14  -1.93423960E+004  9.25593291E-001   9.50839310E-009    4488.98  <-- SCF
     15  -1.93423960E+004  9.25585766E-001  -1.14872507E-008    4555.98  <-- SCF
------------------------------------------------------------------------ <-- SCF
 
Final energy, E             =  -19341.68434946     eV
Final free energy (E-TS)    =  -19342.39601551     eV
(energies not corrected for finite basis set)
 
NB est. 0K energy (E-0.5TS)      =  -19342.04018248     eV
 
Calculating total energy with cut-off of  450.000eV.
------------------------------------------------------------------------ <-- SCF
SCF loop      Energy           Fermi           Energy gain       Timer   <-- SCF
                               energy          per atom          (sec)   <-- SCF
------------------------------------------------------------------------ <-- SCF
Initial  -1.93416843E+004  0.00000000E+000                      4615.79  <-- SCF
      1  -1.93427405E+004  9.20557030E-001   3.91165110E-002    4713.88  <-- SCF
      2  -1.93427406E+004  9.20558673E-001   4.37375014E-006    4826.16  <-- SCF
      3  -1.93427439E+004  9.42316369E-001   1.22227960E-004    4932.96  <-- SCF
      4  -1.93427415E+004  9.32212768E-001  -8.77267814E-005    5049.08  <-- SCF
      5  -1.93427410E+004  9.23029866E-001  -2.08140900E-005    5151.48  <-- SCF
      6  -1.93427405E+004  9.23516002E-001  -1.92466598E-005    5256.77  <-- SCF
      7  -1.93427405E+004  9.25980394E-001   5.66183235E-007    5363.61  <-- SCF
      8  -1.93427404E+004  9.25920892E-001  -2.41903468E-006    5464.43  <-- SCF
      9  -1.93427404E+004  9.25950459E-001   3.59062804E-007    5547.61  <-- SCF
     10  -1.93427404E+004  9.25944271E-001  -2.40017864E-007    5634.20  <-- SCF
     11  -1.93427404E+004  9.25935541E-001  -2.14701067E-008    5868.44  <-- SCF
     12  -1.93427404E+004  9.25892353E-001  -1.95766089E-009    5999.91  <-- SCF
------------------------------------------------------------------------ <-- SCF
 
Final energy, E             =  -19342.02847180     eV
Final free energy (E-TS)    =  -19342.74041545     eV
(energies not corrected for finite basis set)
 
NB est. 0K energy (E-0.5TS)      =  -19342.38444363     eV
 
 For future reference: finite basis dEtot/dlog(Ecut) =     -31.584790eV
 Total energy corrected for finite basis set =  -19342.735205 eV
 
+---------------- MEMORY AND SCRATCH DISK ESTIMATES PER NODE -----------------+
|                                                     Memory          Disk    |
| Model and support data                              711.0 MB         0.0 MB |
| Electronic energy minimisation requirements         286.4 MB         0.0 MB |
| Geometry minimisation requirements                  409.5 MB         0.0 MB |
|                                               ----------------------------- |
| Approx. total storage required per node            1406.9 MB         0.0 MB |
|                                                                             |
| Requirements will fluctuate during execution and may exceed these estimates |
+-----------------------------------------------------------------------------+
 

 *********************************** Forces ***********************************
 *                                                                            *
 *                        Cartesian components (eV/A)                         *
 * -------------------------------------------------------------------------- *
 *                   x                    y                    z              *
 *                                                                            *
 * O         1      1.27474              1.17320              1.18793         *
 * O         2     -1.13908              1.29314              0.96988         *
 * O         3     -0.01232              0.00000              0.94921         *
 * O         4      1.27474             -1.17320              1.18793         *
 * O         5     -1.13908             -1.29314              0.96988         *
 * O         6     -0.36617              1.08280              0.38101         *
 * O         7      1.14012              0.00000              0.39350         *
 * O         8     -1.01621              0.00000              0.35590         *
 * O         9     -0.36617             -1.08280              0.38101         *
 * O        10      1.44281              1.34307             -1.53431         *
 * O        11     -1.26603              1.42521             -1.25017         *
 * O        12     -0.01571              0.00000             -1.19350         *
 * O        13      1.44281             -1.34307             -1.53431         *
 * O        14     -1.26603             -1.42521             -1.25017         *
 * Mg        1      0.03122              1.67047              2.77181         *
 * Mg        2      1.67129              0.00000              2.70913         *
 * Mg        3     -1.66942              0.00000              2.81476         *
 * Mg        4      0.03122             -1.67047              2.77181         *
 * Mg        5     -2.76824              1.63486             -0.05433         *
 * Mg        6      0.08416              0.00000             -0.17158         *
 * Mg        7     -2.76824             -1.63486             -0.05433         *
 * Ca        1      2.65641              3.35090             -0.10089         *
 * Ca        2      2.65641             -3.35090             -0.10089         *
 * Ca        3      0.04691              3.26493             -2.65668         *
 * Ca        4      3.26070              0.00000             -2.56966         *
 * Ca        5     -3.26777              0.00000             -2.71629         *
 * Ca        6      0.04691             -3.26493             -2.65668         *
 *                                                                            *
 ******************************************************************************

 ***************** Stress Tensor *****************
 *                                               *
 *          Cartesian components (GPa)           *
 * --------------------------------------------- *
 *             x             y             z     *
 *                                               *
 *  x     15.416679      0.000000     -0.081447  *
 *  y      0.000000     15.896711      0.000000  *
 *  z     -0.081447      0.000000     14.967671  *
 *                                               *
 *  Pressure:  -15.4270                          *
 *                                               *
 *************************************************

 *********** Constrained Stress Tensor ***********
 *                                               *
 *          Cartesian components (GPa)           *
 * --------------------------------------------- *
 *             x             y             z     *
 *                                               *
 *  x     15.749596      0.000000     -0.000000  *
 *  y      0.000000     15.749596      0.000000  *
 *  z     -0.000000      0.000000     15.749596  *
 *                                               *
 *  Pressure:  -15.7496                          *
 *                                               *
 *************************************************
 BFGS: finished iteration     0 with enthalpy= -1.93427352E+004 eV
  
 +-----------+-----------------+-----------------+------------+-----+ <-- BFGS
 | Parameter |      value      |    tolerance    |    units   | OK? | <-- BFGS
 +-----------+-----------------+-----------------+------------+-----+ <-- BFGS
 |  dE/ion   |   0.000000E+000 |   2.000000E-005 |         eV | No  | <-- BFGS
 |  |F|max   |   4.277288E+000 |   5.000000E-002 |       eV/A | No  | <-- BFGS
 |  |dR|max  |   0.000000E+000 |   1.000000E-003 |          A | No  | <-- BFGS
 |   Smax    |   1.542730E+001 |   1.000000E-001 |        GPa | No  | <-- BFGS
 +-----------+-----------------+-----------------+------------+-----+ <-- BFGS
  

================================================================================
 Starting BFGS iteration          1 ...
================================================================================
  
 +------------+-------------+-------------+-----------------+ <-- min BFGS
 |    Step    |   lambda    |   F.delta   |    enthalpy     | <-- min BFGS
 +------------+-------------+-------------+-----------------+ <-- min BFGS
 |  previous  |    0.000000 |    0.097911 |   -19342.735205 | <-- min BFGS
 +------------+-------------+-------------+-----------------+ <-- min BFGS
  

--------------------------------------------------------------------------------
 BFGS: starting iteration         1 with trial guess (lambda=  1.000000)
--------------------------------------------------------------------------------

                           -------------------------------
                                      Unit Cell
                           -------------------------------
        Real Lattice(A)              Reciprocal Lattice(1/A)
   8.3136071   0.0000000   0.0000000        0.7557713   0.0000000  -0.0000000
   0.0000000   8.3136071   0.0000000        0.0000000   0.7557713   0.0000000
   0.0000000   0.0000000   8.3136071       -0.0000000   0.0000000   0.7557713

                       Lattice parameters(A)       Cell Angles
                    a =    8.313607          alpha =   90.000000
                    b =    8.313607          beta  =   90.000000
                    c =    8.313607          gamma =   90.000000

                Current cell volume =  574.603800 A**3

                           -------------------------------
                                     Cell Contents
                           -------------------------------

            xxxxxxxxxxxxxxxxxxxxxxxxxxxxxxxxxxxxxxxxxxxxxxxxxxxxxxxxxxxx
            x  Element    Atom        Fractional coordinates of atoms  x
            x            Number           u          v          w      x
            x----------------------------------------------------------x
            x  O            1         0.000631   0.000581   0.000588   x
            x  O            2         0.666103   0.000640   0.000480   x
            x  O            3         0.333327   0.333333   0.000470   x
            x  O            4         0.000631   0.666086   0.000588   x
            x  O            5         0.666103   0.666026   0.000480   x
            x  O            6         0.333152   0.000536   0.333522   x
            x  O            7         0.000565   0.333333   0.333528   x
            x  O            8         0.666163   0.333333   0.333510   x
            x  O            9         0.333152   0.666131   0.333522   x
            x  O           10         0.000714   0.000665   0.665907   x
            x  O           11         0.666040   0.000706   0.666048   x
            x  O           12         0.333326   0.333333   0.666076   x
            x  O           13         0.000714   0.666002   0.665907   x
            x  O           14         0.666040   0.665961   0.666048   x
            x  Mg           1         0.333349   0.000827   0.001373   x
            x  Mg           2         0.000828   0.333333   0.001341   x
            x  Mg           3         0.665840   0.333333   0.001394   x
            x  Mg           4         0.333349   0.665840   0.001373   x
            x  Mg           5         0.665296   0.000810   0.333306   x
            x  Mg           6         0.333375   0.333333   0.333248   x
            x  Mg           7         0.665296   0.665857   0.333306   x
            x  Ca           1         0.001315   0.001659   0.333283   x
            x  Ca           2         0.001315   0.665007   0.333283   x
            x  Ca           3         0.333357   0.001617   0.665351   x
            x  Ca           4         0.001615   0.333333   0.665394   x
            x  Ca           5         0.665049   0.333333   0.665322   x
            x  Ca           6         0.333357   0.665050   0.665351   x
            xxxxxxxxxxxxxxxxxxxxxxxxxxxxxxxxxxxxxxxxxxxxxxxxxxxxxxxxxxxx


------------------------------------------------------------------------ <-- SCF
SCF loop      Energy           Fermi           Energy gain       Timer   <-- SCF
                               energy          per atom          (sec)   <-- SCF
------------------------------------------------------------------------ <-- SCF
Initial  -1.93384526E+004  0.00000000E+000                      6371.87  <-- SCF
      1  -1.93528035E+004  2.00628452E+000   5.31512254E-001    6463.37  <-- SCF
      2  -1.93530785E+004  2.00243540E+000   1.01861779E-002    6587.56  <-- SCF
      3  -1.93666619E+004  5.91986992E-001   5.03088277E-001    6695.50  <-- SCF
      4  -1.93489245E+004  1.47622270E+000  -6.56940674E-001    6811.53  <-- SCF
      5  -1.93480524E+004  1.47902066E+000  -3.22972244E-002    7039.96  <-- SCF
      6  -1.93465174E+004  1.39230786E+000  -5.68541485E-002    7173.58  <-- SCF
      7  -1.93465822E+004  1.31453117E+000   2.40197048E-003    7291.17  <-- SCF
      8  -1.93455512E+004  1.13513530E+000  -3.81874845E-002    7417.86  <-- SCF
      9  -1.93456291E+004  1.12598966E+000   2.88785320E-003    7616.17  <-- SCF
     10  -1.93455066E+004  1.12289468E+000  -4.53722914E-003    7728.83  <-- SCF
     11  -1.93455020E+004  1.11408349E+000  -1.70323499E-004    7838.88  <-- SCF
     12  -1.93454905E+004  1.10610077E+000  -4.28572149E-004    7966.97  <-- SCF
     13  -1.93454640E+004  1.09850756E+000  -9.80942879E-004    8119.75  <-- SCF
     14  -1.93454655E+004  1.09779611E+000   5.61411274E-005    8433.04  <-- SCF
     15  -1.93454644E+004  1.09750389E+000  -4.03044381E-005    8543.84  <-- SCF
     16  -1.93454641E+004  1.09751508E+000  -1.11964956E-005    8659.29  <-- SCF
     17  -1.93454641E+004  1.09754788E+000  -1.19140611E-007    8768.77  <-- SCF
     18  -1.93454641E+004  1.09752028E+000   1.20743198E-007    8876.13  <-- SCF
     19  -1.93454641E+004  1.09754183E+000   1.65871831E-008    8951.44  <-- SCF
     20  -1.93454641E+004  1.09757693E+000  -9.88712703E-008    9024.78  <-- SCF
------------------------------------------------------------------------ <-- SCF
 
Final energy, E             =  -19344.79620597     eV
Final free energy (E-TS)    =  -19345.46410861     eV
(energies not corrected for finite basis set)
 
NB est. 0K energy (E-0.5TS)      =  -19345.13015729     eV
 

 *********************************** Forces ***********************************
 *                                                                            *
 *                        Cartesian components (eV/A)                         *
 * -------------------------------------------------------------------------- *
 *                   x                    y                    z              *
 *                                                                            *
 * O         1      1.33205              1.23072              1.19716         *
 * O         2     -1.18972              1.34582              1.01572         *
 * O         3     -0.01357              0.00000              0.99663         *
 * O         4      1.33205             -1.23072              1.19716         *
 * O         5     -1.18972             -1.34582              1.01572         *
 * O         6     -0.35400              1.14344              0.37071         *
 * O         7      1.20139              0.00000              0.38414         *
 * O         8     -1.07198              0.00000              0.34470         *
 * O         9     -0.35400             -1.14344              0.37071         *
 * O        10      1.47660              1.37716             -1.56652         *
 * O        11     -1.28811              1.44959             -1.31201         *
 * O        12     -0.01654              0.00000             -1.25517         *
 * O        13      1.47660             -1.37716             -1.56652         *
 * O        14     -1.28811             -1.44959             -1.31201         *
 * Mg        1      0.03277              1.76865              2.82474         *
 * Mg        2      1.76948              0.00000              2.75845         *
 * Mg        3     -1.76684              0.00000              2.87118         *
 * Mg        4      0.03277             -1.76865              2.82474         *
 * Mg        5     -2.82045              1.72659             -0.05644         *
 * Mg        6      0.09313              0.00000             -0.18925         *
 * Mg        7     -2.82045             -1.72659             -0.05644         *
 * Ca        1      2.66783              3.32072             -0.10555         *
 * Ca        2      2.66783             -3.32072             -0.10555         *
 * Ca        3      0.04867              3.22859             -2.66855         *
 * Ca        4      3.22449              0.00000             -2.57513         *
 * Ca        5     -3.23084              0.00000             -2.73408         *
 * Ca        6      0.04867             -3.22859             -2.66855         *
 *                                                                            *
 ******************************************************************************

 ***************** Stress Tensor *****************
 *                                               *
 *          Cartesian components (GPa)           *
 * --------------------------------------------- *
 *             x             y             z     *
 *                                               *
 *  x     15.758689      0.000000     -0.089852  *
 *  y      0.000000     16.249124      0.000000  *
 *  z     -0.089852      0.000000     15.297530  *
 *                                               *
 *  Pressure:  -15.7684                          *
 *                                               *
 *************************************************

 *********** Constrained Stress Tensor ***********
 *                                               *
 *          Cartesian components (GPa)           *
 * --------------------------------------------- *
 *             x             y             z     *
 *                                               *
 *  x     16.102055      0.000000     -0.000000  *
 *  y      0.000000     16.102055      0.000000  *
 *  z     -0.000000      0.000000     16.102055  *
 *                                               *
 *  Pressure:  -16.1021                          *
 *                                               *
 *************************************************
  
 +------------+-------------+-------------+-----------------+ <-- min BFGS
 |    Step    |   lambda    |   F.delta   |    enthalpy     | <-- min BFGS
 +------------+-------------+-------------+-----------------+ <-- min BFGS
 |  previous  |    0.000000 |    0.097911 |   -19342.735205 | <-- min BFGS
 | trial step |    1.000000 |    0.098088 |   -19345.455709 | <-- min BFGS
 +------------+-------------+-------------+-----------------+ <-- min BFGS
  
 BFGS: finished iteration     1 with enthalpy= -1.93454557E+004 eV
  
 +-----------+-----------------+-----------------+------------+-----+ <-- BFGS
 | Parameter |      value      |    tolerance    |    units   | OK? | <-- BFGS
 +-----------+-----------------+-----------------+------------+-----+ <-- BFGS
 |  dE/ion   |   1.007594E-001 |   2.000000E-005 |         eV | No  | <-- BFGS
 |  |F|max   |   4.260942E+000 |   5.000000E-002 |       eV/A | No  | <-- BFGS
 |  |dR|max  |   1.760790E-002 |   1.000000E-003 |          A | No  | <-- BFGS
 |   Smax    |   1.576873E+001 |   1.000000E-001 |        GPa | No  | <-- BFGS
 +-----------+-----------------+-----------------+------------+-----+ <-- BFGS
  

================================================================================
 Starting BFGS iteration          2 ...
================================================================================
  
 +------------+-------------+-------------+-----------------+ <-- min BFGS
 |    Step    |   lambda    |   F.delta   |    enthalpy     | <-- min BFGS
 +------------+-------------+-------------+-----------------+ <-- min BFGS
 |  previous  |    0.000000 |    0.098281 |   -19345.455709 | <-- min BFGS
 +------------+-------------+-------------+-----------------+ <-- min BFGS
  

--------------------------------------------------------------------------------
 BFGS: starting iteration         2 with trial guess (lambda=  1.000000)
--------------------------------------------------------------------------------

                           -------------------------------
                                      Unit Cell
                           -------------------------------
        Real Lattice(A)              Reciprocal Lattice(1/A)
   8.2271093   0.0000000   0.0000000        0.7637173   0.0000000  -0.0000000
   0.0000000   8.2271093   0.0000000        0.0000000   0.7637173   0.0000000
   0.0000000   0.0000000   8.2271093       -0.0000000   0.0000000   0.7637173

                       Lattice parameters(A)       Cell Angles
                    a =    8.227109          alpha =   90.000000
                    b =    8.227109          beta  =   90.000000
                    c =    8.227109          gamma =   90.000000

                Current cell volume =  556.854584 A**3

                           -------------------------------
                                     Cell Contents
                           -------------------------------

            xxxxxxxxxxxxxxxxxxxxxxxxxxxxxxxxxxxxxxxxxxxxxxxxxxxxxxxxxxxx
            x  Element    Atom        Fractional coordinates of atoms  x
            x            Number           u          v          w      x
            x----------------------------------------------------------x
            x  O            1         0.001284   0.001184   0.001175   x
            x  O            2         0.665520   0.001300   0.000978   x
            x  O            3         0.333321   0.333333   0.000958   x
            x  O            4         0.001284   0.665483   0.001175   x
            x  O            5         0.665520   0.665367   0.000978   x
            x  O            6         0.332979   0.001097   0.333704   x
            x  O            7         0.001153   0.333333   0.333716   x
            x  O            8         0.665638   0.333333   0.333678   x
            x  O            9         0.332979   0.665570   0.333704   x
            x  O           10         0.001438   0.001340   0.665139   x
            x  O           11         0.665409   0.001416   0.665405   x
            x  O           12         0.333317   0.333333   0.665461   x
            x  O           13         0.001438   0.665327   0.665139   x
            x  O           14         0.665409   0.665251   0.665405   x
            x  Mg           1         0.333365   0.001694   0.002757   x
            x  Mg           2         0.001695   0.333333   0.002693   x
            x  Mg           3         0.664974   0.333333   0.002801   x
            x  Mg           4         0.333365   0.664973   0.002757   x
            x  Mg           5         0.663914   0.001656   0.333279   x
            x  Mg           6         0.333421   0.333333   0.333156   x
            x  Mg           7         0.663914   0.665011   0.333279   x
            x  Ca           1         0.002623   0.003287   0.333232   x
            x  Ca           2         0.002623   0.663380   0.333232   x
            x  Ca           3         0.333380   0.003199   0.664043   x
            x  Ca           4         0.003195   0.333333   0.664132   x
            x  Ca           5         0.663465   0.333333   0.663982   x
            x  Ca           6         0.333380   0.663468   0.664043   x
            xxxxxxxxxxxxxxxxxxxxxxxxxxxxxxxxxxxxxxxxxxxxxxxxxxxxxxxxxxxx


------------------------------------------------------------------------ <-- SCF
SCF loop      Energy           Fermi           Energy gain       Timer   <-- SCF
                               energy          per atom          (sec)   <-- SCF
------------------------------------------------------------------------ <-- SCF
Initial  -1.93412514E+004  0.00000000E+000                      9363.67  <-- SCF
      1  -1.93554007E+004  2.19148475E+000   5.24047543E-001    9460.94  <-- SCF
      2  -1.93556701E+004  2.18766337E+000   9.97850924E-003    9584.33  <-- SCF
      3  -1.93679327E+004  7.63849902E-001   4.54169098E-001    9697.06  <-- SCF
      4  -1.93512906E+004  1.68822086E+000  -6.16371222E-001    9812.82  <-- SCF
      5  -1.93502269E+004  1.61942408E+000  -3.93993939E-002    9977.41  <-- SCF
      6  -1.93491556E+004  1.56301174E+000  -3.96761774E-002   10097.90  <-- SCF
      7  -1.93490925E+004  1.46493685E+000  -2.33679730E-003   10213.08  <-- SCF
      8  -1.93482578E+004  1.31183468E+000  -3.09161339E-002   10327.04  <-- SCF
      9  -1.93483402E+004  1.30305262E+000   3.05215522E-003   10443.85  <-- SCF
     10  -1.93482455E+004  1.30179803E+000  -3.50508641E-003   10603.12  <-- SCF
     11  -1.93482187E+004  1.28994062E+000  -9.94160089E-004   10716.97  <-- SCF
     12  -1.93482122E+004  1.28390139E+000  -2.38887255E-004   10828.26  <-- SCF
     13  -1.93481943E+004  1.27692870E+000  -6.63408054E-004   10931.30  <-- SCF
     14  -1.93481956E+004  1.27676712E+000   4.55817511E-005   11058.27  <-- SCF
     15  -1.93481944E+004  1.27686455E+000  -4.28523315E-005   11219.69  <-- SCF
     16  -1.93481944E+004  1.27697801E+000   8.55080292E-007   11376.04  <-- SCF
     17  -1.93481944E+004  1.27686081E+000  -1.77243175E-006   11471.16  <-- SCF
     18  -1.93481944E+004  1.27686432E+000  -7.33079039E-008   11549.03  <-- SCF
     19  -1.93481944E+004  1.27690571E+000   4.77556514E-010   11628.60  <-- SCF
------------------------------------------------------------------------ <-- SCF
 
Final energy, E             =  -19347.56823800     eV
Final free energy (E-TS)    =  -19348.19438407     eV
(energies not corrected for finite basis set)
 
NB est. 0K energy (E-0.5TS)      =  -19347.88131104     eV
 

 *********************************** Forces ***********************************
 *                                                                            *
 *                        Cartesian components (eV/A)                         *
 * -------------------------------------------------------------------------- *
 *                   x                    y                    z              *
 *                                                                            *
 * O         1      1.38982              1.29012              1.20173         *
 * O         2     -1.24035              1.39594              1.06212         *
 * O         3     -0.01531              0.00000              1.04137         *
 * O         4      1.38982             -1.29012              1.20173         *
 * O         5     -1.24035             -1.39594              1.06212         *
 * O         6     -0.33910              1.20557              0.35749         *
 * O         7      1.26202              0.00000              0.37156         *
 * O         8     -1.12714              0.00000              0.33057         *
 * O         9     -0.33910             -1.20557              0.35749         *
 * O        10      1.50802              1.41168             -1.59513         *
 * O        11     -1.30732              1.46880             -1.37522         *
 * O        12     -0.01781              0.00000             -1.31437         *
 * O        13      1.50802             -1.41168             -1.59513         *
 * O        14     -1.30732             -1.46880             -1.37522         *
 * Mg        1      0.03472              1.86901              2.87700         *
 * Mg        2      1.86975              0.00000              2.80681         *
 * Mg        3     -1.86655              0.00000              2.92757         *
 * Mg        4      0.03472             -1.86901              2.87700         *
 * Mg        5     -2.87160              1.81942             -0.05936         *
 * Mg        6      0.10295              0.00000             -0.20850         *
 * Mg        7     -2.87160             -1.81942             -0.05936         *
 * Ca        1      2.67390              3.28706             -0.11044         *
 * Ca        2      2.67390             -3.28706             -0.11044         *
 * Ca        3      0.05061              3.18776             -2.67488         *
 * Ca        4      3.18402              0.00000             -2.57460         *
 * Ca        5     -3.18933              0.00000             -2.74701         *
 * Ca        6      0.05061             -3.18776             -2.67488         *
 *                                                                            *
 ******************************************************************************

 ***************** Stress Tensor *****************
 *                                               *
 *          Cartesian components (GPa)           *
 * --------------------------------------------- *
 *             x             y             z     *
 *                                               *
 *  x     16.056674      0.000000     -0.099097  *
 *  y      0.000000     16.551365      0.000000  *
 *  z     -0.099097      0.000000     15.588513  *
 *                                               *
 *  Pressure:  -16.0655                          *
 *                                               *
 *************************************************

 *********** Constrained Stress Tensor ***********
 *                                               *
 *          Cartesian components (GPa)           *
 * --------------------------------------------- *
 *             x             y             z     *
 *                                               *
 *  x     16.408250      0.000000     -0.000000  *
 *  y      0.000000     16.408250      0.000000  *
 *  z     -0.000000      0.000000     16.408250  *
 *                                               *
 *  Pressure:  -16.4083                          *
 *                                               *
 *************************************************
  
 +------------+-------------+-------------+-----------------+ <-- min BFGS
 |    Step    |   lambda    |   F.delta   |    enthalpy     | <-- min BFGS
 +------------+-------------+-------------+-----------------+ <-- min BFGS
 |  previous  |    0.000000 |    0.098281 |   -19345.455709 | <-- min BFGS
 | trial step |    1.000000 |    0.098207 |   -19348.186284 | <-- min BFGS
 +------------+-------------+-------------+-----------------+ <-- min BFGS
  
 BFGS: finished iteration     2 with enthalpy= -1.93481863E+004 eV
  
 +-----------+-----------------+-----------------+------------+-----+ <-- BFGS
 | Parameter |      value      |    tolerance    |    units   | OK? | <-- BFGS
 +-----------+-----------------+-----------------+------------+-----+ <-- BFGS
 |  dE/ion   |   1.011324E-001 |   2.000000E-005 |         eV | No  | <-- BFGS
 |  |F|max   |   4.238715E+000 |   5.000000E-002 |       eV/A | No  | <-- BFGS
 |  |dR|max  |   1.717959E-002 |   1.000000E-003 |          A | No  | <-- BFGS
 |   Smax    |   1.606581E+001 |   1.000000E-001 |        GPa | No  | <-- BFGS
 +-----------+-----------------+-----------------+------------+-----+ <-- BFGS
  

================================================================================
 Starting BFGS iteration          3 ...
================================================================================
  
 +------------+-------------+-------------+-----------------+ <-- min BFGS
 |    Step    |   lambda    |   F.delta   |    enthalpy     | <-- min BFGS
 +------------+-------------+-------------+-----------------+ <-- min BFGS
 |  previous  |    0.000000 |    0.098151 |   -19348.186284 | <-- min BFGS
 +------------+-------------+-------------+-----------------+ <-- min BFGS
  

--------------------------------------------------------------------------------
 BFGS: starting iteration         3 with trial guess (lambda=  1.000000)
--------------------------------------------------------------------------------

                           -------------------------------
                                      Unit Cell
                           -------------------------------
        Real Lattice(A)              Reciprocal Lattice(1/A)
   8.1408062   0.0000000   0.0000000        0.7718136   0.0000000  -0.0000000
   0.0000000   8.1408062   0.0000000        0.0000000   0.7718136   0.0000000
   0.0000000   0.0000000   8.1408062       -0.0000000   0.0000000   0.7718136

                       Lattice parameters(A)       Cell Angles
                    a =    8.140806          alpha =   90.000000
                    b =    8.140806          beta  =   90.000000
                    c =    8.140806          gamma =   90.000000

                Current cell volume =  539.513406 A**3

                           -------------------------------
                                     Cell Contents
                           -------------------------------

            xxxxxxxxxxxxxxxxxxxxxxxxxxxxxxxxxxxxxxxxxxxxxxxxxxxxxxxxxxxx
            x  Element    Atom        Fractional coordinates of atoms  x
            x            Number           u          v          w      x
            x----------------------------------------------------------x
            x  O            1         0.001958   0.001810   0.001758   x
            x  O            2         0.664918   0.001977   0.001493   x
            x  O            3         0.333313   0.333333   0.001463   x
            x  O            4         0.001958   0.664857   0.001758   x
            x  O            5         0.664918   0.664690   0.001493   x
            x  O            6         0.332814   0.001681   0.333877   x
            x  O            7         0.001765   0.333333   0.333897   x
            x  O            8         0.665091   0.333333   0.333839   x
            x  O            9         0.332814   0.664985   0.333877   x
            x  O           10         0.002169   0.002025   0.664366   x
            x  O           11         0.664774   0.002128   0.664738   x
            x  O           12         0.333309   0.333333   0.664823   x
            x  O           13         0.002169   0.664642   0.664366   x
            x  O           14         0.664774   0.664538   0.664738   x
            x  Mg           1         0.333382   0.002600   0.004152   x
            x  Mg           2         0.002602   0.333333   0.004055   x
            x  Mg           3         0.664069   0.333333   0.004221   x
            x  Mg           4         0.333382   0.664066   0.004152   x
            x  Mg           5         0.662521   0.002538   0.333250   x
            x  Mg           6         0.333471   0.333333   0.333055   x
            x  Mg           7         0.662521   0.664129   0.333250   x
            x  Ca           1         0.003920   0.004881   0.333178   x
            x  Ca           2         0.003920   0.661786   0.333178   x
            x  Ca           3         0.333405   0.004745   0.662746   x
            x  Ca           4         0.004739   0.333333   0.662884   x
            x  Ca           5         0.661919   0.333333   0.662650   x
            x  Ca           6         0.333405   0.661922   0.662746   x
            xxxxxxxxxxxxxxxxxxxxxxxxxxxxxxxxxxxxxxxxxxxxxxxxxxxxxxxxxxxx


------------------------------------------------------------------------ <-- SCF
SCF loop      Energy           Fermi           Energy gain       Timer   <-- SCF
                               energy          per atom          (sec)   <-- SCF
------------------------------------------------------------------------ <-- SCF
Initial  -1.93440700E+004  0.00000000E+000                     11960.91  <-- SCF
      1  -1.93579607E+004  2.38135781E+000   5.14471168E-001   12049.00  <-- SCF
      2  -1.93582227E+004  2.37760889E+000   9.70403600E-003   12218.77  <-- SCF
      3  -1.93691888E+004  9.26123024E-001   4.06151937E-001   12336.37  <-- SCF
      4  -1.93536152E+004  1.90301290E+000  -5.76801126E-001   12465.95  <-- SCF
      5  -1.93524230E+004  1.76375289E+000  -4.41561936E-002   12579.00  <-- SCF
      6  -1.93518060E+004  1.73787957E+000  -2.28525808E-002   12695.63  <-- SCF
      7  -1.93514348E+004  1.58827818E+000  -1.37468268E-002   12808.11  <-- SCF
      8  -1.93509823E+004  1.49690646E+000  -1.67596568E-002   12923.53  <-- SCF
      9  -1.93510282E+004  1.48539158E+000   1.70049521E-003   13050.70  <-- SCF
     10  -1.93509801E+004  1.48667570E+000  -1.78202443E-003   13164.32  <-- SCF
     11  -1.93509352E+004  1.47494679E+000  -1.66436111E-003   13269.52  <-- SCF
     12  -1.93509322E+004  1.46984660E+000  -1.08555803E-004   13374.95  <-- SCF
     13  -1.93509220E+004  1.46320488E+000  -3.79713152E-004   13482.18  <-- SCF
     14  -1.93509217E+004  1.46399446E+000  -9.36437463E-006   13600.49  <-- SCF
     15  -1.93509216E+004  1.46411257E+000  -6.11865113E-006   13697.72  <-- SCF
     16  -1.93509215E+004  1.46388958E+000  -1.76818622E-007   13806.18  <-- SCF
     17  -1.93509215E+004  1.46402101E+000  -3.88907680E-007   13961.85  <-- SCF
     18  -1.93509215E+004  1.46400700E+000  -1.77206007E-007   14068.17  <-- SCF
     19  -1.93509215E+004  1.46401724E+000  -1.89730178E-008   14170.26  <-- SCF
     20  -1.93509215E+004  1.46403875E+000   2.13181778E-009   14242.24  <-- SCF
------------------------------------------------------------------------ <-- SCF
 
Final energy, E             =  -19350.33197939     eV
Final free energy (E-TS)    =  -19350.92153157     eV
(energies not corrected for finite basis set)
 
NB est. 0K energy (E-0.5TS)      =  -19350.62675548     eV
 

 *********************************** Forces ***********************************
 *                                                                            *
 *                        Cartesian components (eV/A)                         *
 * -------------------------------------------------------------------------- *
 *                   x                    y                    z              *
 *                                                                            *
 * O         1      1.45089              1.35391              1.20482         *
 * O         2     -1.29364              1.44768              1.11144         *
 * O         3     -0.01738              0.00000              1.09213         *
 * O         4      1.45089             -1.35391              1.20482         *
 * O         5     -1.29364             -1.44768              1.11144         *
 * O         6     -0.32008              1.27203              0.34022         *
 * O         7      1.32716              0.00000              0.35533         *
 * O         8     -1.18542              0.00000              0.31160         *
 * O         9     -0.32008             -1.27203              0.34022         *
 * O        10      1.53908              1.44541             -1.62195         *
 * O        11     -1.32703              1.48603             -1.44221         *
 * O        12     -0.01920              0.00000             -1.37810         *
 * O        13      1.53908             -1.44541             -1.62195         *
 * O        14     -1.32703             -1.48603             -1.44221         *
 * Mg        1      0.03698              1.96995              2.92660         *
 * Mg        2      1.97033              0.00000              2.85232         *
 * Mg        3     -1.96702              0.00000              2.98136         *
 * Mg        4      0.03698             -1.96995              2.92660         *
 * Mg        5     -2.91970              1.91192             -0.06276         *
 * Mg        6      0.11303              0.00000             -0.22911         *
 * Mg        7     -2.91970             -1.91192             -0.06276         *
 * Ca        1      2.67138              3.24747             -0.11719         *
 * Ca        2      2.67138             -3.24747             -0.11719         *
 * Ca        3      0.05374              3.14112             -2.67315         *
 * Ca        4      3.13736              0.00000             -2.56492         *
 * Ca        5     -3.14213              0.00000             -2.75228         *
 * Ca        6      0.05374             -3.14112             -2.67315         *
 *                                                                            *
 ******************************************************************************

 ***************** Stress Tensor *****************
 *                                               *
 *          Cartesian components (GPa)           *
 * --------------------------------------------- *
 *             x             y             z     *
 *                                               *
 *  x     16.286200      0.000000     -0.109684  *
 *  y      0.000000     16.781922      0.000000  *
 *  z     -0.109684      0.000000     15.817568  *
 *                                               *
 *  Pressure:  -16.2952                          *
 *                                               *
 *************************************************

 *********** Constrained Stress Tensor ***********
 *                                               *
 *          Cartesian components (GPa)           *
 * --------------------------------------------- *
 *             x             y             z     *
 *                                               *
 *  x     16.644147      0.000000      0.000000  *
 *  y      0.000000     16.644147      0.000000  *
 *  z      0.000000      0.000000     16.644147  *
 *                                               *
 *  Pressure:  -16.6441                          *
 *                                               *
 *************************************************
  
 +------------+-------------+-------------+-----------------+ <-- min BFGS
 |    Step    |   lambda    |   F.delta   |    enthalpy     | <-- min BFGS
 +------------+-------------+-------------+-----------------+ <-- min BFGS
 |  previous  |    0.000000 |    0.098151 |   -19348.186284 | <-- min BFGS
 | trial step |    1.000000 |    0.097753 |   -19350.906232 | <-- min BFGS
 +------------+-------------+-------------+-----------------+ <-- min BFGS
  
 BFGS: finished iteration     3 with enthalpy= -1.93509062E+004 eV
  
 +-----------+-----------------+-----------------+------------+-----+ <-- BFGS
 | Parameter |      value      |    tolerance    |    units   | OK? | <-- BFGS
 +-----------+-----------------+-----------------+------------+-----+ <-- BFGS
 |  dE/ion   |   1.007388E-001 |   2.000000E-005 |         eV | No  | <-- BFGS
 |  |F|max   |   4.206668E+000 |   5.000000E-002 |       eV/A | No  | <-- BFGS
 |  |dR|max  |   1.673475E-002 |   1.000000E-003 |          A | No  | <-- BFGS
 |   Smax    |   1.629552E+001 |   1.000000E-001 |        GPa | No  | <-- BFGS
 +-----------+-----------------+-----------------+------------+-----+ <-- BFGS
  

================================================================================
 Starting BFGS iteration          4 ...
================================================================================
  
 +------------+-------------+-------------+-----------------+ <-- min BFGS
 |    Step    |   lambda    |   F.delta   |    enthalpy     | <-- min BFGS
 +------------+-------------+-------------+-----------------+ <-- min BFGS
 |  previous  |    0.000000 |    0.097377 |   -19350.906232 | <-- min BFGS
 +------------+-------------+-------------+-----------------+ <-- min BFGS
  

--------------------------------------------------------------------------------
 BFGS: starting iteration         4 with trial guess (lambda=  1.000000)
--------------------------------------------------------------------------------

                           -------------------------------
                                      Unit Cell
                           -------------------------------
        Real Lattice(A)              Reciprocal Lattice(1/A)
   8.0550960   0.0000000   0.0000000        0.7800261   0.0000000  -0.0000000
   0.0000000   8.0550960   0.0000000        0.0000000   0.7800261   0.0000000
   0.0000000   0.0000000   8.0550960       -0.0000000   0.0000000   0.7800261

                       Lattice parameters(A)       Cell Angles
                    a =    8.055096          alpha =   90.000000
                    b =    8.055096          beta  =   90.000000
                    c =    8.055096          gamma =   90.000000

                Current cell volume =  522.651447 A**3

                           -------------------------------
                                     Cell Contents
                           -------------------------------

            xxxxxxxxxxxxxxxxxxxxxxxxxxxxxxxxxxxxxxxxxxxxxxxxxxxxxxxxxxxx
            x  Element    Atom        Fractional coordinates of atoms  x
            x            Number           u          v          w      x
            x----------------------------------------------------------x
            x  O            1         0.002654   0.002459   0.002336   x
            x  O            2         0.664297   0.002672   0.002026   x
            x  O            3         0.333305   0.333333   0.001988   x
            x  O            4         0.002654   0.664207   0.002336   x
            x  O            5         0.664297   0.663995   0.002026   x
            x  O            6         0.332660   0.002292   0.334040   x
            x  O            7         0.002402   0.333333   0.334067   x
            x  O            8         0.664523   0.333333   0.333988   x
            x  O            9         0.332660   0.664375   0.334040   x
            x  O           10         0.002908   0.002718   0.663587   x
            x  O           11         0.664138   0.002842   0.664046   x
            x  O           12         0.333300   0.333333   0.664162   x
            x  O           13         0.002908   0.663948   0.663587   x
            x  O           14         0.664138   0.663825   0.664046   x
            x  Mg           1         0.333399   0.003546   0.005557   x
            x  Mg           2         0.003547   0.333333   0.005423   x
            x  Mg           3         0.663125   0.333333   0.005651   x
            x  Mg           4         0.333399   0.663121   0.005557   x
            x  Mg           5         0.661120   0.003456   0.333220   x
            x  Mg           6         0.333525   0.333333   0.332945   x
            x  Mg           7         0.661120   0.663211   0.333220   x
            x  Ca           1         0.005202   0.006439   0.333122   x
            x  Ca           2         0.005202   0.660227   0.333122   x
            x  Ca           3         0.333431   0.006252   0.661463   x
            x  Ca           4         0.006245   0.333333   0.661653   x
            x  Ca           5         0.660411   0.333333   0.661329   x
            x  Ca           6         0.333431   0.660414   0.661463   x
            xxxxxxxxxxxxxxxxxxxxxxxxxxxxxxxxxxxxxxxxxxxxxxxxxxxxxxxxxxxx


------------------------------------------------------------------------ <-- SCF
SCF loop      Energy           Fermi           Energy gain       Timer   <-- SCF
                               energy          per atom          (sec)   <-- SCF
------------------------------------------------------------------------ <-- SCF
Initial  -1.93468899E+004  0.00000000E+000                     14567.15  <-- SCF
      1  -1.93604478E+004  2.57207067E+000   5.02146032E-001   14666.71  <-- SCF
      2  -1.93607004E+004  2.56843511E+000   9.35470819E-003   14810.42  <-- SCF
      3  -1.93704302E+004  1.07397704E+000   3.60362334E-001   14917.25  <-- SCF
      4  -1.93560080E+004  2.12355531E+000  -5.34156656E-001   15024.85  <-- SCF
      5  -1.93549708E+004  1.94069281E+000  -3.84133307E-002   15137.72  <-- SCF
      6  -1.93544143E+004  1.91977774E+000  -2.06129665E-002   15253.37  <-- SCF
      7  -1.93540536E+004  1.77247432E+000  -1.33572412E-002   15363.54  <-- SCF
      8  -1.93536816E+004  1.69099497E+000  -1.37788706E-002   15473.07  <-- SCF
      9  -1.93537129E+004  1.67737146E+000   1.15815189E-003   15581.96  <-- SCF
     10  -1.93536767E+004  1.67665724E+000  -1.33902267E-003   15691.28  <-- SCF
     11  -1.93536333E+004  1.66868083E+000  -1.60625641E-003   15796.59  <-- SCF
     12  -1.93536305E+004  1.66383983E+000  -1.04851942E-004   15902.28  <-- SCF
     13  -1.93536242E+004  1.65737059E+000  -2.34595544E-004   16018.29  <-- SCF
     14  -1.93536235E+004  1.65839022E+000  -2.52284671E-005   16121.43  <-- SCF
     15  -1.93536235E+004  1.65807412E+000   1.46734693E-006   16218.81  <-- SCF
     16  -1.93536235E+004  1.65823340E+000  -2.22617598E-006   16308.50  <-- SCF
     17  -1.93536235E+004  1.65830728E+000  -3.19508567E-007   16389.15  <-- SCF
     18  -1.93536235E+004  1.65833100E+000  -1.19354755E-009   16477.63  <-- SCF
     19  -1.93536235E+004  1.65834459E+000  -9.62434492E-009   16559.78  <-- SCF
------------------------------------------------------------------------ <-- SCF
 
Final energy, E             =  -19353.06446457     eV
Final free energy (E-TS)    =  -19353.62346106     eV
(energies not corrected for finite basis set)
 
NB est. 0K energy (E-0.5TS)      =  -19353.34396281     eV
 

 *********************************** Forces ***********************************
 *                                                                            *
 *                        Cartesian components (eV/A)                         *
 * -------------------------------------------------------------------------- *
 *                   x                    y                    z              *
 *                                                                            *
 * O         1      1.51599              1.42271              1.20217         *
 * O         2     -1.35184              1.50340              1.16631         *
 * O         3     -0.02036              0.00000              1.14040         *
 * O         4      1.51599             -1.42271              1.20217         *
 * O         5     -1.35184             -1.50340              1.16631         *
 * O         6     -0.29633              1.33491              0.31827         *
 * O         7      1.39078              0.00000              0.33492         *
 * O         8     -1.24011              0.00000              0.28811         *
 * O         9     -0.29633             -1.33491              0.31827         *
 * O        10      1.56661              1.47659             -1.64515         *
 * O        11     -1.34208              1.49810             -1.51397         *
 * O        12     -0.02101              0.00000             -1.43869         *
 * O        13      1.56661             -1.47659             -1.64515         *
 * O        14     -1.34208             -1.49810             -1.51397         *
 * Mg        1      0.03975              2.06979              2.97276         *
 * Mg        2      2.06967              0.00000              2.89430         *
 * Mg        3     -2.06660              0.00000              3.03208         *
 * Mg        4      0.03975             -2.06979              2.97276         *
 * Mg        5     -2.96463              2.00300             -0.06717         *
 * Mg        6      0.12385              0.00000             -0.25183         *
 * Mg        7     -2.96463             -2.00300             -0.06717         *
 * Ca        1      2.65971              3.20045             -0.12382         *
 * Ca        2      2.65971             -3.20045             -0.12382         *
 * Ca        3      0.05678              3.08553             -2.66182         *
[...]
 * Mg        5     -2.41122              2.11891             -0.18726         *
 * Mg        6      0.18874              0.00000             -0.37785         *
 * Mg        7     -2.41122             -2.11891             -0.18726         *
 * Ca        1      0.70931              0.94581             -0.30265         *
 * Ca        2      0.70931             -0.94581             -0.30265         *
 * Ca        3      0.13063              0.79246             -0.71725         *
 * Ca        4      0.82431              0.00000             -0.52771         *
 * Ca        5     -0.75127              0.00000             -0.92613         *
 * Ca        6      0.13063             -0.79246             -0.71725         *
 *                                                                            *
 ******************************************************************************

 ***************** Stress Tensor *****************
 *                                               *
 *          Cartesian components (GPa)           *
 * --------------------------------------------- *
 *             x             y             z     *
 *                                               *
 *  x      3.401900      0.000000     -0.159395  *
 *  y      0.000000      3.354448      0.000000  *
 *  z     -0.159395      0.000000      3.894957  *
 *                                               *
 *  Pressure:   -3.5504                          *
 *                                               *
 *************************************************

 *********** Constrained Stress Tensor ***********
 *                                               *
 *          Cartesian components (GPa)           *
 * --------------------------------------------- *
 *             x             y             z     *
 *                                               *
 *  x      3.564707      0.000000      0.000000  *
 *  y      0.000000      3.564707      0.000000  *
 *  z      0.000000      0.000000      3.564707  *
 *                                               *
 *  Pressure:   -3.5647                          *
 *                                               *
 *************************************************
  
 +------------+-------------+-------------+-----------------+ <-- min BFGS
 |    Step    |   lambda    |   F.delta   |    enthalpy     | <-- min BFGS
 +------------+-------------+-------------+-----------------+ <-- min BFGS
 |  previous  |    0.000000 |    0.021105 |   -19381.525499 | <-- min BFGS
 | trial step |    1.000000 |    0.020208 |   -19382.097840 | <-- min BFGS
 +------------+-------------+-------------+-----------------+ <-- min BFGS
  
 BFGS: finished iteration    22 with enthalpy= -1.93820978E+004 eV
  
 +-----------+-----------------+-----------------+------------+-----+ <-- BFGS
 | Parameter |      value      |    tolerance    |    units   | OK? | <-- BFGS
 +-----------+-----------------+-----------------+------------+-----+ <-- BFGS
 |  dE/ion   |   2.119781E-002 |   2.000000E-005 |         eV | No  | <-- BFGS
 |  |F|max   |   3.391017E+000 |   5.000000E-002 |       eV/A | No  | <-- BFGS
 |  |dR|max  |   1.029237E-002 |   1.000000E-003 |          A | No  | <-- BFGS
 |   Smax    |   3.550513E+000 |   1.000000E-001 |        GPa | No  | <-- BFGS
 +-----------+-----------------+-----------------+------------+-----+ <-- BFGS
  

================================================================================
 Starting BFGS iteration         23 ...
================================================================================
  
 +------------+-------------+-------------+-----------------+ <-- min BFGS
 |    Step    |   lambda    |   F.delta   |    enthalpy     | <-- min BFGS
 +------------+-------------+-------------+-----------------+ <-- min BFGS
 |  previous  |    0.000000 |    0.019408 |   -19382.097840 | <-- min BFGS
 +------------+-------------+-------------+-----------------+ <-- min BFGS
  

--------------------------------------------------------------------------------
 BFGS: starting iteration        23 with trial guess (lambda=  1.000000)
--------------------------------------------------------------------------------

                           -------------------------------
                                      Unit Cell
                           -------------------------------
        Real Lattice(A)              Reciprocal Lattice(1/A)
   7.0581079   0.0000000   0.0000000        0.8902082   0.0000000  -0.0000000
   0.0000000   7.0581079   0.0000000        0.0000000   0.8902082   0.0000000
   0.0000000   0.0000000   7.0581079       -0.0000000   0.0000000   0.8902082

                       Lattice parameters(A)       Cell Angles
                    a =    7.058108          alpha =   90.000000
                    b =    7.058108          beta  =   90.000000
                    c =    7.058108          gamma =   90.000000

                Current cell volume =  351.612964 A**3

                           -------------------------------
                                     Cell Contents
                           -------------------------------

            xxxxxxxxxxxxxxxxxxxxxxxxxxxxxxxxxxxxxxxxxxxxxxxxxxxxxxxxxxxx
            x  Element    Atom        Fractional coordinates of atoms  x
            x            Number           u          v          w      x
            x----------------------------------------------------------x
            x  O            1         0.019440   0.018613   0.011223   x
            x  O            2         0.649664   0.018212   0.015699   x
            x  O            3         0.333053   0.333333   0.013937   x
            x  O            4         0.019440   0.648053   0.011223   x
            x  O            5         0.649664   0.648454   0.015699   x
            x  O            6         0.333552   0.016218   0.333288   x
            x  O            7         0.016985   0.333333   0.333517   x
            x  O            8         0.651597   0.333333   0.333000   x
            x  O            9         0.333552   0.650449   0.333288   x
            x  O           10         0.016305   0.015529   0.649626   x
            x  O           11         0.653319   0.014622   0.646015   x
            x  O           12         0.333173   0.333333   0.648930   x
            x  O           13         0.016305   0.651137   0.649626   x
            x  O           14         0.653319   0.652044   0.646015   x
            x  Mg           1         0.334055   0.023960   0.029514   x
            x  Mg           2         0.023961   0.333333   0.028404   x
            x  Mg           3         0.642784   0.333333   0.030607   x
            x  Mg           4         0.334055   0.642707   0.029514   x
            x  Mg           5         0.636983   0.022820   0.332143   x
            x  Mg           6         0.335152   0.333333   0.329675   x
            x  Mg           7         0.636983   0.643847   0.332143   x
            x  Ca           1         0.020666   0.024755   0.331324   x
            x  Ca           2         0.020666   0.641911   0.331324   x
            x  Ca           3         0.334230   0.023200   0.646035   x
            x  Ca           4         0.023254   0.333333   0.647710   x
            x  Ca           5         0.643613   0.333333   0.644488   x
            x  Ca           6         0.334230   0.643467   0.646035   x
            xxxxxxxxxxxxxxxxxxxxxxxxxxxxxxxxxxxxxxxxxxxxxxxxxxxxxxxxxxxx


------------------------------------------------------------------------ <-- SCF
SCF loop      Energy           Fermi           Energy gain       Timer   <-- SCF
                               energy          per atom          (sec)   <-- SCF
------------------------------------------------------------------------ <-- SCF
Initial  -1.93812796E+004  0.00000000E+000                     43780.31  <-- SCF
      1  -1.93835844E+004  5.14098463E+000   8.53654842E-002   43837.73  <-- SCF
      2  -1.93836154E+004  5.14055808E+000   1.14793658E-003   43914.37  <-- SCF
      3  -1.93832609E+004  4.37350849E+000  -1.31325742E-002   43973.55  <-- SCF
      4  -1.93827902E+004  5.00686541E+000  -1.74335623E-002   44044.11  <-- SCF
      5  -1.93829343E+004  4.89370347E+000   5.33996994E-003   44113.79  <-- SCF
      6  -1.93826609E+004  4.81629775E+000  -1.01262940E-002   44176.64  <-- SCF
      7  -1.93826480E+004  4.82572131E+000  -4.77474844E-004   44240.16  <-- SCF
      8  -1.93826419E+004  4.81326234E+000  -2.28565004E-004   44303.18  <-- SCF
      9  -1.93826412E+004  4.82330679E+000  -2.28554629E-005   44365.75  <-- SCF
     10  -1.93826401E+004  4.81308588E+000  -4.13443343E-005   44425.50  <-- SCF
     11  -1.93826399E+004  4.81198144E+000  -6.87560811E-006   44483.82  <-- SCF
     12  -1.93826399E+004  4.81130079E+000   1.93219961E-007   44537.87  <-- SCF
     13  -1.93826399E+004  4.81127836E+000  -6.22883561E-008   44583.88  <-- SCF
     14  -1.93826399E+004  4.81133587E+000   7.94017908E-010   44625.74  <-- SCF
------------------------------------------------------------------------ <-- SCF
 
Final energy, E             =  -19382.45038578     eV
Final free energy (E-TS)    =  -19382.63994780     eV
(energies not corrected for finite basis set)
 
NB est. 0K energy (E-0.5TS)      =  -19382.54516679     eV
 

 *********************************** Forces ***********************************
 *                                                                            *
 *                        Cartesian components (eV/A)                         *
 * -------------------------------------------------------------------------- *
 *                   x                    y                    z              *
 *                                                                            *
 * O         1      2.25140              2.17845              0.78985         *
 * O         2     -1.89181              1.96379              1.85216         *
 * O         3     -0.00133              0.00000              1.40833         *
 * O         4      2.25140             -2.17845              0.78985         *
 * O         5     -1.89181             -1.96379              1.85216         *
 * O         6      0.48248              1.58890             -0.50924         *
 * O         7      1.70267              0.00000             -0.48132         *
 * O         8     -1.49310              0.00000             -0.52588         *
 * O         9      0.48248             -1.58890             -0.50924         *
 * O        10      1.39996              1.31705             -1.48849         *
 * O        11     -1.03899              1.12659             -2.55840         *
 * O        12      0.02567              0.00000             -1.82930         *
 * O        13      1.39996             -1.31705             -1.48849         *
 * O        14     -1.03899             -1.12659             -2.55840         *
 * Mg        1      0.12181              2.23903              2.27762         *
 * Mg        2      2.26127              0.00000              2.14551         *
 * Mg        3     -2.21649              0.00000              2.44207         *
 * Mg        4      0.12181             -2.23903              2.27762         *
 * Mg        5     -2.34204              2.06304             -0.18874         *
 * Mg        6      0.17606              0.00000             -0.35278         *
 * Mg        7     -2.34204             -2.06304             -0.18874         *
 * Ca        1      0.61963              0.85345             -0.30364         *
 * Ca        2      0.61963             -0.85345             -0.30364         *
 * Ca        3      0.13049              0.70792             -0.63222         *
 * Ca        4      0.74303              0.00000             -0.44719         *
 * Ca        5     -0.66364              0.00000             -0.83725         *
 * Ca        6      0.13049             -0.70792             -0.63222         *
 *                                                                            *
 ******************************************************************************

 ***************** Stress Tensor *****************
 *                                               *
 *          Cartesian components (GPa)           *
 * --------------------------------------------- *
 *             x             y             z     *
 *                                               *
 *  x      2.604703      0.000000     -0.144992  *
 *  y      0.000000      2.538228      0.000000  *
 *  z     -0.144992      0.000000      3.133069  *
 *                                               *
 *  Pressure:   -2.7587                          *
 *                                               *
 *************************************************

 *********** Constrained Stress Tensor ***********
 *                                               *
 *          Cartesian components (GPa)           *
 * --------------------------------------------- *
 *             x             y             z     *
 *                                               *
 *  x      2.767307      0.000000     -0.000000  *
 *  y      0.000000      2.767307      0.000000  *
 *  z     -0.000000      0.000000      2.767307  *
 *                                               *
 *  Pressure:   -2.7673                          *
 *                                               *
 *************************************************
  
 +------------+-------------+-------------+-----------------+ <-- min BFGS
 |    Step    |   lambda    |   F.delta   |    enthalpy     | <-- min BFGS
 +------------+-------------+-------------+-----------------+ <-- min BFGS
 |  previous  |    0.000000 |    0.019408 |   -19382.097840 | <-- min BFGS
 | trial step |    1.000000 |    0.018589 |   -19382.622375 | <-- min BFGS
 +------------+-------------+-------------+-----------------+ <-- min BFGS
  
 BFGS: finished iteration    23 with enthalpy= -1.93826224E+004 eV
  
 +-----------+-----------------+-----------------+------------+-----+ <-- BFGS
 | Parameter |      value      |    tolerance    |    units   | OK? | <-- BFGS
 +-----------+-----------------+-----------------+------------+-----+ <-- BFGS
 |  dE/ion   |   1.942723E-002 |   2.000000E-005 |         eV | No  | <-- BFGS
 |  |F|max   |   3.297959E+000 |   5.000000E-002 |       eV/A | No  | <-- BFGS
 |  |dR|max  |   9.977996E-003 |   1.000000E-003 |          A | No  | <-- BFGS
 |   Smax    |   2.758761E+000 |   1.000000E-001 |        GPa | No  | <-- BFGS
 +-----------+-----------------+-----------------+------------+-----+ <-- BFGS
  

================================================================================
 Starting BFGS iteration         24 ...
================================================================================
  
 +------------+-------------+-------------+-----------------+ <-- min BFGS
 |    Step    |   lambda    |   F.delta   |    enthalpy     | <-- min BFGS
 +------------+-------------+-------------+-----------------+ <-- min BFGS
 |  previous  |    0.000000 |    0.017876 |   -19382.622375 | <-- min BFGS
 +------------+-------------+-------------+-----------------+ <-- min BFGS
  

--------------------------------------------------------------------------------
 BFGS: starting iteration        24 with trial guess (lambda=  1.000000)
--------------------------------------------------------------------------------

                           -------------------------------
                                      Unit Cell
                           -------------------------------
        Real Lattice(A)              Reciprocal Lattice(1/A)
   7.0472005   0.0000000   0.0000000        0.8915860   0.0000000  -0.0000000
   0.0000000   7.0472005   0.0000000        0.0000000   0.8915860   0.0000000
   0.0000000   0.0000000   7.0472005       -0.0000000   0.0000000   0.8915860

                       Lattice parameters(A)       Cell Angles
                    a =    7.047201          alpha =   90.000000
                    b =    7.047201          beta  =   90.000000
                    c =    7.047201          gamma =   90.000000

                Current cell volume =  349.985368 A**3

                           -------------------------------
                                     Cell Contents
                           -------------------------------

            xxxxxxxxxxxxxxxxxxxxxxxxxxxxxxxxxxxxxxxxxxxxxxxxxxxxxxxxxxxx
            x  Element    Atom        Fractional coordinates of atoms  x
            x            Number           u          v          w      x
            x----------------------------------------------------------x
            x  O            1         0.020377   0.019520   0.011552   x
            x  O            2         0.648877   0.019030   0.016470   x
            x  O            3         0.333053   0.333333   0.014522   x
            x  O            4         0.020377   0.647147   0.011552   x
            x  O            5         0.648877   0.647637   0.016470   x
            x  O            6         0.333752   0.016879   0.333076   x
            x  O            7         0.017693   0.333333   0.333317   x
            x  O            8         0.650975   0.333333   0.332781   x
            x  O            9         0.333752   0.649788   0.333076   x
            x  O           10         0.016888   0.016077   0.649006   x
            x  O           11         0.652887   0.015091   0.644950   x
            x  O           12         0.333183   0.333333   0.648168   x
            x  O           13         0.016888   0.650589   0.649006   x
            x  O           14         0.652887   0.651576   0.644950   x
            x  Mg           1         0.334106   0.024891   0.030461   x
            x  Mg           2         0.024902   0.333333   0.029297   x
            x  Mg           3         0.641862   0.333333   0.031623   x
            x  Mg           4         0.334106   0.641775   0.030461   x
            x  Mg           5         0.636008   0.023678   0.332064   x
            x  Mg           6         0.335225   0.333333   0.329529   x
            x  Mg           7         0.636008   0.642989   0.332064   x
            x  Ca           1         0.020924   0.025110   0.331198   x
            x  Ca           2         0.020924   0.641556   0.331198   x
            x  Ca           3         0.334284   0.023494   0.645772   x
            x  Ca           4         0.023563   0.333333   0.647524   x
            x  Ca           5         0.643337   0.333333   0.644139   x
            x  Ca           6         0.334284   0.643172   0.645772   x
            xxxxxxxxxxxxxxxxxxxxxxxxxxxxxxxxxxxxxxxxxxxxxxxxxxxxxxxxxxxx


------------------------------------------------------------------------ <-- SCF
SCF loop      Energy           Fermi           Energy gain       Timer   <-- SCF
                               energy          per atom          (sec)   <-- SCF
------------------------------------------------------------------------ <-- SCF
Initial  -1.93818656E+004  0.00000000E+000                     44775.48  <-- SCF
      1  -1.93839696E+004  5.14804534E+000   7.79248943E-002   44831.91  <-- SCF
      2  -1.93839969E+004  5.14766917E+000   1.01071063E-003   44908.36  <-- SCF
      3  -1.93836105E+004  4.46569998E+000  -1.43086423E-002   44970.29  <-- SCF
      4  -1.93833070E+004  5.04451702E+000  -1.12434526E-002   45032.95  <-- SCF
      5  -1.93833876E+004  4.94886074E+000   2.98590854E-003   45097.86  <-- SCF
      6  -1.93831466E+004  4.85210201E+000  -8.92486684E-003   45159.73  <-- SCF
      7  -1.93831321E+004  4.86031082E+000  -5.36531928E-004   45232.66  <-- SCF
      8  -1.93831273E+004  4.85027370E+000  -1.80128586E-004   45296.47  <-- SCF
      9  -1.93831269E+004  4.86069503E+000  -1.39291044E-005   45358.23  <-- SCF
     10  -1.93831259E+004  4.85138772E+000  -3.46909286E-005   45418.14  <-- SCF
