 +-------------------------------------------------+
 |                                                 |
 |      CCC   AA    SSS  TTTTT  EEEEE  PPPP        |
 |     C     A  A  S       T    E      P   P       |
 |     C     AAAA   SS     T    EEE    PPPP        |
 |     C     A  A     S    T    E      P           |
 |      CCC  A  A  SSS     T    EEEEE  P           |
 |                                                 |
 +-------------------------------------------------+
 |                                                 |
 | Welcome to Academic Release CASTEP version 6.1  |
 | Ab Initio Total Energy Program                  |
 |                                                 |
 | Authors:                                        |
 | M. Segall, M. Probert, C. Pickard, P. Hasnip,   |
 | S. Clark, K. Refson, J. R. Yates, M. Payne      |
 |                                                 |
 | Contributors:                                   |
 | P. Lindan, P. Haynes, J. White, V. Milman,      |
 | N. Govind, M. Gibson, P. Tulip, V. Cocula,      |
 | B. Montanari, D. Quigley, M. Glover,            |
 | L. Bernasconi, A. Perlov, M. Plummer,           |
 | E. McNellis, J. Meyer, J. Gale, D. Jochym       |
 | J. Aarons, B. Walker, R. Gillen                 |
 |                                                 |
 | Copyright (c) 2000 - 2012                       |
 |                                                 |
 |     Distributed under the terms of an           |
 |     Agreement between the United Kingdom        |
 |     Car-Parrinello (UKCP) Consortium,           |
 |     Daresbury Laboratory and Accelrys, Inc.     |
 |                                                 |
 | Please cite                                     |
 |                                                 |
 |     "First principles methods using CASTEP"     |
 |                                                 |
 |         Zeitschrift fuer Kristallographie       |
 |           220(5-6) pp. 567-570 (2005)           |
 |                                                 |
 | S. J. Clark, M. D. Segall, C. J. Pickard,       |
 | P. J. Hasnip, M. J. Probert, K. Refson,         |
 | M. C. Payne                                     |
 |                                                 |
 |       in all publications arising from          |
 |              your use of CASTEP                 |
 |                                                 |
 +-------------------------------------------------+


 Compiled for linux_x86_64_gfortran on Wed Nov 21 15:08:09 2012
 from source code version eaed21d6e002+  2012-10-31
 using fast optimisation, fftw3 FFTs and openblas LAPACK and BLAS.


 Atomic calculation performed for O: 1s2 2s2 2p4

 Converged in 60 iterations to an ae energy of -2027.926 eV

   ============================================================                
   | Pseudopotential Report - Date of generation  6-05-2016   |                
   ------------------------------------------------------------                
   | Element: O Ionic charge:  6.00 Level of theory: LDA      |                
   |                                                          |                
   |               Reference Electronic Structure             |                
   |         Orbital         Occupation         Energy        |                
   |            2s              2.000           -0.873        |                
   |            2p              4.000           -0.338        |                
   |                                                          |                
   |                 Pseudopotential Definition               |                
   |        Beta     l      e      Rc     scheme   norm       |                
   |          1      0   -0.873   1.300     qc      0         |                
   |          2      0    0.250   1.300     qc      0         |                
   |          3      1   -0.338   1.300     qc      0         |                
   |          4      1    0.250   1.300     qc      0         |                
   |         loc     2    0.000   1.004     pn      0         |                
   |                                                          |                
   | Augmentation charge Rinner = 0.701                       |                
   | Partial core correction Rc = 0.701                       |                
   ------------------------------------------------------------                
   | "2|1.0|1.3|0.7|13|16|18|20:21(qc=7)"                     |                
   ------------------------------------------------------------                
   |      Author: Chris J. Pickard, Cambridge University      |                
   ============================================================                

 Atomic calculation performed for Mg: 1s2 2s2 2p6 3s2

 Converged in 47 iterations to an ae energy of -5427.407 eV

 Identity difference:   5.17267234911703770E-004

   ============================================================                
   | Pseudopotential Report - Date of generation  6-05-2016   |                
   ------------------------------------------------------------                
   | Element: Mg Ionic charge:  8.00 Level of theory: LDA     |                
   |                                                          |                
   |               Reference Electronic Structure             |                
   |         Orbital         Occupation         Energy        |                
   |            2p              6.000           -1.717        |                
   |            3s              2.000           -0.176        |                
   |                                                          |                
   |                 Pseudopotential Definition               |                
   |        Beta     l      e      Rc     scheme   norm       |                
   |          1      0   -0.176   1.994     qc      1         |                
   |          2      1   -1.717   1.994     qc      0         |                
   |          3      1    0.000   1.994     qc      0         |                
   |          4      1    0.250   1.994     qc      0         |                
   |         loc     2    0.000   1.605     pn      0         |                
   |                                                          |                
   | Augmentation charge Rinner = 1.405                       |                
   | Partial core correction Rc = 1.405                       |                
   ------------------------------------------------------------                
   | "2|1.6|2|1.4|6|7|8|30NH:21U:31UU:32LGG(qc=4.5)[]"        |                
   ------------------------------------------------------------                
   |      Author: Chris J. Pickard, Cambridge University      |                
   ============================================================                

 Doing a self consistent calculation for the test configuration

 Atomic calculation performed for Mg: 1s2 2s2 2p6 3s2

 Converged in 47 iterations to an ae energy of -5427.407 eV

 ---------------------------------------
 AE eigenvalue nl 10 =      -46.06264936
 AE eigenvalue nl 20 =       -2.91364591
 AE eigenvalue nl 21 =       -1.71672732
 AE eigenvalue nl 30 =       -0.17593422
 ---------------------------------------
 PS eigenvalue nl 21 =       -1.71622098
 PS eigenvalue nl 30 =       -0.17592300
 ---------------------------------------

 Atomic calculation performed for Ca: 1s2 2s2 2p6 3s2 3p6 4s2

 Converged in 44 iterations to an ae energy of -18468.058 eV

   ============================================================                
   | Pseudopotential Report - Date of generation  6-05-2016   |                
   ------------------------------------------------------------                
   | Element: Ca Ionic charge: 10.00 Level of theory: LDA     |                
   |                                                          |                
   |               Reference Electronic Structure             |                
   |         Orbital         Occupation         Energy        |                
   |            3s              2.000           -1.721        |                
   |            3p              6.000           -1.028        |                
   |            4s              2.000           -0.142        |                
   |                                                          |                
   |                 Pseudopotential Definition               |                
   |        Beta     l      e      Rc     scheme   norm       |                
   |          1      0   -1.721   2.005     qc      0         |                
   |          2      0   -0.142   2.005     qc      0         |                
   |          3      1   -1.028   2.005     qc      0         |                
   |          4      1    0.250   2.005     qc      0         |                
   |          5      2    0.000   2.005     qc      0         |                
   |          6      2    1.000   2.005     qc      0         |                
   |         loc     3    0.000   1.601     pn      0         |                
   |                                                          |                
   | Augmentation charge Rinner = 1.401                       |                
   | Partial core correction Rc = 1.401                       |                
   ------------------------------------------------------------                
   | "3|1.6|2.0|1.4|7|9|10|30U:40U:31:32U=0U=1.0"             |                
   ------------------------------------------------------------                
   |      Author: Chris J. Pickard, Cambridge University      |                
   ============================================================                

 Pseudo atomic calculation performed for O 2s2 2p4

 Converged in 30 iterations to a total energy of -432.5600 eV


 Pseudo atomic calculation performed for Mg 2p6 3s2

 Converged in 23 iterations to a total energy of -1024.6674 eV


 Pseudo atomic calculation performed for Ca 3s2 3p6 4s2

 Converged in 24 iterations to a total energy of -1000.4575 eV

 Calculation parallelised over 2 processes.
 Data is distributed by k-point(2-way)

 ************************************ Title ************************************
 MgO

 ***************************** General Parameters ******************************
  
 output verbosity                               : normal  (1)
 write checkpoint data to                       : test_3.check
 type of calculation                            : geometry optimization
 stress calculation                             : on
 density difference calculation                 : off
 electron localisation func (ELF) calculation   : off
 Hirshfeld analysis                             : off
 unlimited duration calculation
 timing information                             : on
 memory usage estimate                          : on
 write final potential to formatted file        : off
 write final density to formatted file          : off
 write BibTeX reference list                    : on
  
 output         length unit                     : A
 output           mass unit                     : amu
 output           time unit                     : ps
 output         charge unit                     : e
 output         energy unit                     : eV
 output          force unit                     : eV/A
 output       velocity unit                     : A/ps
 output       pressure unit                     : GPa
 output     inv_length unit                     : 1/A
 output      frequency unit                     : cm-1
 output force constant unit                     : eV/A**2
 output         volume unit                     : A**3
 output   IR intensity unit                     : (D/A)**2/amu
 output         dipole unit                     : D
 output         efield unit                     : eV/A/e
 output        entropy unit                     : J/mol/K
  
 wavefunctions paging                           : none
 random number generator seed                   : randomised (12238900)
 data distribution                              : optimal for this architecture
 optimization strategy                          : maximize speed(+++)

 *********************** Exchange-Correlation Parameters ***********************
  
 using functional                               : Local Density Approximation
 Divergence correction                          : off
 DFT+D: Semi-empirical dispersion correction    : off

 ************************* Pseudopotential Parameters **************************
  
 pseudopotential representation                 : reciprocal space
 <beta|phi> representation                      : reciprocal space

 **************************** Basis Set Parameters *****************************
  
 plane wave basis set cut-off                   :   450.0000   eV
 size of standard grid                          :     2.0000
 size of   fine   gmax                          :    21.7358   1/A
 largest prime factor in FFT                    :          5
 finite basis set correction                    : automatic
 number of sample energies                      :          3
           sample  spacing                      :     5.0000   eV

 **************************** Electronic Parameters ****************************
  
 number of  electrons                           :  202.0    
 net charge of system                           :  0.000    
 net spin   of system                           :  0.000    
 number of  up  spins                           :  101.0    
 number of down spins                           :  101.0    
 treating system as non-spin-polarized
 number of bands                                :        121

 ********************* Electronic Minimization Parameters **********************
  
 Method: Treating system as metallic with density mixing treatment of electrons,
         and number of  SD  steps               :          1
         and number of  CG  steps               :          4
  
 total energy / atom convergence tol.           : 0.1000E-06   eV
 eigen-energy convergence tolerance             : 0.2673E-07   eV
 max force / atom convergence tol.              : ignored
 convergence tolerance window                   :          3   cycles
 max. number of SCF cycles                      :         60
 number of fixed-spin iterations                :         10
 smearing scheme                                : Gaussian
 smearing width                                 : 0.2000       eV
 Fermi energy convergence tolerance             : 0.2673E-08   eV
 periodic dipole correction                     : NONE

 ************************** Density Mixing Parameters **************************
  
 density-mixing scheme                          : Pulay
 max. length of mixing history                  :         30
 charge density mixing amplitude                : 0.8000    
 cut-off energy for mixing                      :  450.0       eV
 charge density mixing g-vector                 :  1.500       1/A

 *********************** Population Analysis Parameters ************************
  
 Population analysis with cutoff                :  3.000       A

 ********************** Geometry Optimization Parameters ***********************
  
 optimization method                            : BFGS
 variable cell method                           : fixed basis quality
 max. number of steps                           :         30
 estimated bulk modulus                         :  500.0       GPa
 estimated <frequency>                          :  1668.       cm-1
 geom line minimiser                            : on
 with line minimiser tolerance                  :     0.4000
 total energy convergence tolerance             : 0.2000E-04   eV/atom
        max ionic |force| tolerance             : 0.5000E-01   eV/A
 max ionic |displacement| tolerance             : 0.1000E-02   A
   max |stress component| tolerance             : 0.1000       GPa
 convergence tolerance window                   :          2   steps
 backup results every                           :          5   steps

 *******************************************************************************
  

                           -------------------------------
                                      Unit Cell
                           -------------------------------
        Real Lattice(A)                      Reciprocal Lattice(1/A)
   8.4000000   0.0000000   0.0000000        0.7479983   0.0000000   0.0000000
   0.0000000   8.4000000   0.0000000        0.0000000   0.7479983   0.0000000
   0.0000000   0.0000000   8.4000000        0.0000000   0.0000000   0.7479983

                       Lattice parameters(A)       Cell Angles
                    a =    8.400000          alpha =   90.000000
                    b =    8.400000          beta  =   90.000000
                    c =    8.400000          gamma =   90.000000

                       Current cell volume =  592.704000       A**3

                           -------------------------------
                                     Cell Contents
                           -------------------------------
                         Total number of ions in cell =   27
                      Total number of species in cell =    3
                        Max number of any one species =   14

            xxxxxxxxxxxxxxxxxxxxxxxxxxxxxxxxxxxxxxxxxxxxxxxxxxxxxxxxxxxx
            x  Element    Atom        Fractional coordinates of atoms  x
            x            Number           u          v          w      x
            x----------------------------------------------------------x
            x  O            1         0.000000   0.000000   0.000000   x
            x  O            2         0.666667   0.000000   0.000000   x
            x  O            3         0.333333   0.333333   0.000000   x
            x  O            4         0.000000   0.666667   0.000000   x
            x  O            5         0.666667   0.666667   0.000000   x
            x  O            6         0.333333   0.000000   0.333333   x
            x  O            7         0.000000   0.333333   0.333333   x
            x  O            8         0.666667   0.333333   0.333333   x
            x  O            9         0.333333   0.666667   0.333333   x
            x  O           10         0.000000   0.000000   0.666667   x
            x  O           11         0.666667   0.000000   0.666667   x
            x  O           12         0.333333   0.333333   0.666667   x
            x  O           13         0.000000   0.666667   0.666667   x
            x  O           14         0.666667   0.666667   0.666667   x
            x  Mg           1         0.333333   0.000000   0.000000   x
            x  Mg           2         0.000000   0.333333   0.000000   x
            x  Mg           3         0.666667   0.333333   0.000000   x
            x  Mg           4         0.333333   0.666667   0.000000   x
            x  Mg           5         0.333333   0.333333   0.333333   x
            x  Mg           6         0.666667   0.666667   0.333333   x
            x  Ca           1         0.000000   0.000000   0.333333   x
            x  Ca           2         0.666667   0.000000   0.333333   x
            x  Ca           3         0.000000   0.666667   0.333333   x
            x  Ca           4         0.333333   0.000000   0.666667   x
            x  Ca           5         0.000000   0.333333   0.666667   x
            x  Ca           6         0.666667   0.333333   0.666667   x
            x  Ca           7         0.333333   0.666667   0.666667   x
            xxxxxxxxxxxxxxxxxxxxxxxxxxxxxxxxxxxxxxxxxxxxxxxxxxxxxxxxxxxx


                         No user defined ionic velocities

                           -------------------------------
                                   Details of Species
                           -------------------------------

                               Mass of species in AMU
                                    O   15.9994000
                                    Mg   24.3050000
                                    Ca   40.0780000

                          Electric Quadrupole Moment (Barn)
                                    O   -0.0255800 Isotope 17
                                    Mg    0.1994000 Isotope 25
                                    Ca   -0.0408000 Isotope 43

                          Files used for pseudopotentials:
                                    O Pseudopotential generated on-the-fly
                                    Mg Pseudopotential generated on-the-fly
                                    Ca Pseudopotential generated on-the-fly

                           -------------------------------
                              k-Points For BZ Sampling
                           -------------------------------
                       MP grid size for SCF calculation is  3  3  3
                         Number of kpoints used =          10

             +++++++++++++++++++++++++++++++++++++++++++++++++++++++
             +  Number       Fractional coordinates        Weight  +
             +-----------------------------------------------------+
             +     1  -0.333333  -0.333333   0.000000   0.0740741  +
             +     2  -0.333333   0.000000  -0.333333   0.1481481  +
             +     3  -0.333333   0.333333   0.000000   0.0740741  +
             +     4   0.000000   0.000000  -0.333333   0.0740741  +
             +     5   0.000000   0.000000   0.000000   0.0370370  +
             +     6   0.000000   0.333333  -0.333333   0.1481481  +
             +     7   0.000000   0.333333   0.000000   0.1481481  +
             +     8   0.333333  -0.333333  -0.333333   0.1481481  +
             +     9   0.333333   0.333333  -0.333333   0.0740741  +
             +    10   0.333333   0.333333   0.333333   0.0740741  +
             +++++++++++++++++++++++++++++++++++++++++++++++++++++++

                           -------------------------------
                               Symmetry and Constraints
                           -------------------------------

                      Number of symmetry operations   =           2
                      Number of ionic constraints     =           3
                      Maximum deviation from symmetry =  0.00000         ANG
               Point group of crystal =     3: Cs, m, m
           Set iprint > 1 for details on symmetry rotations/translations

                          Centre of mass is constrained
             Set iprint > 1 for details of linear ionic constraints

                         Number of cell constraints= 5
                         Cell constraints are:  1 1 1 0 0 0

                         External pressure/stress (GPa)
                          0.00000   0.00000   0.00000
                                    0.00000   0.00000
                                              0.00000
  
+---------------- MEMORY AND SCRATCH DISK ESTIMATES PER NODE -----------------+
|                                                     Memory          Disk    |
| Model and support data                              713.6 MB         0.0 MB |
| Electronic energy minimisation requirements         288.8 MB         0.0 MB |
|                                               ----------------------------- |
| Approx. total storage required per node            1002.4 MB         0.0 MB |
|                                                                             |
| Requirements will fluctuate during execution and may exceed these estimates |
+-----------------------------------------------------------------------------+
Calculating finite basis set correction with  3 cut-off energies.
Calculating total energy with cut-off of  440.000eV.
------------------------------------------------------------------------ <-- SCF
SCF loop      Energy           Fermi           Energy gain       Timer   <-- SCF
                               energy          per atom          (sec)   <-- SCF
------------------------------------------------------------------------ <-- SCF
Initial  -1.68474430E+004  0.00000000E+000                        46.82  <-- SCF
      1  -1.86227458E+004  4.47925004E+000   6.57519565E+001     193.63  <-- SCF
      2  -1.93237765E+004 -8.63952372E-001   2.59641008E+001     292.59  <-- SCF
      3  -1.93529218E+004 -1.08571158E+000   1.07945337E+000     390.30  <-- SCF
      4  -1.94281226E+004  3.82491023E+000   2.78521357E+000     523.07  <-- SCF
      5  -1.94366891E+004  3.66370527E+000   3.17279574E-001     647.80  <-- SCF
      6  -1.93247559E+004  9.42994093E-001  -4.14567436E+000     795.53  <-- SCF
      7  -1.93300379E+004  9.96724900E-001   1.95630904E-001     908.76  <-- SCF
      8  -1.93262395E+004  9.03998321E-001  -1.40681635E-001    1045.12  <-- SCF
      9  -1.93238679E+004  9.80370102E-001  -8.78393347E-002    1162.89  <-- SCF
     10  -1.93217674E+004  9.48413364E-001  -7.77943304E-002    1291.89  <-- SCF
     11  -1.93215347E+004  1.09851150E+000  -8.61764974E-003    1411.74  <-- SCF
     12  -1.93210122E+004  1.09379673E+000  -1.93514111E-002    1548.86  <-- SCF
     13  -1.93203647E+004  1.03660929E+000  -2.39846843E-002    1676.62  <-- SCF
     14  -1.93201451E+004  1.08051187E+000  -8.13238920E-003    1795.21  <-- SCF
     15  -1.93198741E+004  1.13629292E+000  -1.00348087E-002    1921.92  <-- SCF
     16  -1.93197965E+004  1.12450390E+000  -2.87756427E-003    2055.38  <-- SCF
     17  -1.93197676E+004  1.13581724E+000  -1.06725893E-003    2220.53  <-- SCF
     18  -1.93197552E+004  1.14645996E+000  -4.59304962E-004    2346.59  <-- SCF
     19  -1.93197344E+004  1.13307792E+000  -7.72858877E-004    2467.56  <-- SCF
     20  -1.93197301E+004  1.13268575E+000  -1.58113494E-004    2588.95  <-- SCF
     21  -1.93197292E+004  1.13263782E+000  -3.22140747E-005    2747.64  <-- SCF
     22  -1.93197282E+004  1.13451535E+000  -3.80107089E-005    2874.47  <-- SCF
     23  -1.93197281E+004  1.13645592E+000  -3.08205121E-006    2991.27  <-- SCF
     24  -1.93197281E+004  1.13636415E+000  -1.39916015E-006    3093.18  <-- SCF
     25  -1.93197281E+004  1.13630577E+000   7.97362408E-008    3216.67  <-- SCF
     26  -1.93197281E+004  1.13631300E+000  -2.24328964E-008    3381.68  <-- SCF
------------------------------------------------------------------------ <-- SCF
 
Final energy, E             =  -19319.00979739     eV
Final free energy (E-TS)    =  -19319.72808409     eV
(energies not corrected for finite basis set)
 
NB est. 0K energy (E-0.5TS)      =  -19319.36894074     eV
 
Calculating total energy with cut-off of  445.000eV.
------------------------------------------------------------------------ <-- SCF
SCF loop      Energy           Fermi           Energy gain       Timer   <-- SCF
                               energy          per atom          (sec)   <-- SCF
------------------------------------------------------------------------ <-- SCF
Initial  -1.93190098E+004  0.00000000E+000                      3442.90  <-- SCF
      1  -1.93201113E+004  1.13200263E+000   4.07975743E-002    3529.96  <-- SCF
      2  -1.93201115E+004  1.13200489E+000   4.71767883E-006    3627.51  <-- SCF
      3  -1.93201164E+004  1.14571650E+000   1.84400680E-004    3732.88  <-- SCF
      4  -1.93201150E+004  1.14814402E+000  -5.35091733E-005    3838.26  <-- SCF
      5  -1.93201141E+004  1.12742516E+000  -3.33011021E-005    4100.71  <-- SCF
      6  -1.93201145E+004  1.12376998E+000   1.42768534E-005    4204.54  <-- SCF
      7  -1.93201115E+004  1.13530783E+000  -1.08595725E-004    4323.77  <-- SCF
      8  -1.93201113E+004  1.13738630E+000  -1.04416836E-005    4432.46  <-- SCF
      9  -1.93201120E+004  1.13753896E+000   2.74596988E-005    4636.23  <-- SCF
     10  -1.93201114E+004  1.13766341E+000  -2.42695019E-005    4755.01  <-- SCF
     11  -1.93201113E+004  1.13711969E+000  -2.90273721E-006    4888.59  <-- SCF
     12  -1.93201113E+004  1.13678282E+000   2.02023592E-006    5000.27  <-- SCF
     13  -1.93201112E+004  1.13639262E+000  -2.96125771E-006    5130.45  <-- SCF
     14  -1.93201112E+004  1.13638965E+000  -8.07012647E-007    5247.79  <-- SCF
     15  -1.93201113E+004  1.13650997E+000   1.05927844E-006    5338.97  <-- SCF
     16  -1.93201112E+004  1.13658326E+000  -1.31585496E-006    5425.06  <-- SCF
     17  -1.93201112E+004  1.13667337E+000   2.35890919E-009    5495.94  <-- SCF
     18  -1.93201112E+004  1.13668618E+000   8.04513152E-009    5576.82  <-- SCF
------------------------------------------------------------------------ <-- SCF
 
Final energy, E             =  -19319.39294898     eV
Final free energy (E-TS)    =  -19320.11121814     eV
(energies not corrected for finite basis set)
 
NB est. 0K energy (E-0.5TS)      =  -19319.75208356     eV
 
Calculating total energy with cut-off of  450.000eV.
------------------------------------------------------------------------ <-- SCF
SCF loop      Energy           Fermi           Energy gain       Timer   <-- SCF
                               energy          per atom          (sec)   <-- SCF
------------------------------------------------------------------------ <-- SCF
Initial  -1.93193929E+004  0.00000000E+000                      5639.64  <-- SCF
      1  -1.93204554E+004  1.13208900E+000   3.93496699E-002    5728.58  <-- SCF
      2  -1.93204555E+004  1.13209140E+000   4.47942258E-006    5861.65  <-- SCF
      3  -1.93204620E+004  1.14921326E+000   2.38758790E-004    5960.04  <-- SCF
      4  -1.93204588E+004  1.14454959E+000  -1.18440313E-004    6065.39  <-- SCF
      5  -1.93204584E+004  1.13216300E+000  -1.37542380E-005    6178.87  <-- SCF
      6  -1.93204578E+004  1.12196731E+000  -2.01118596E-005    6305.37  <-- SCF
      7  -1.93204555E+004  1.13646479E+000  -8.76775542E-005    6433.50  <-- SCF
      8  -1.93204553E+004  1.13711691E+000  -4.80816101E-006    6677.65  <-- SCF
      9  -1.93204558E+004  1.13847737E+000   1.79668479E-005    6799.34  <-- SCF
     10  -1.93204555E+004  1.13808238E+000  -1.14542425E-005    6894.44  <-- SCF
     11  -1.93204553E+004  1.13758383E+000  -7.75828127E-006    7007.18  <-- SCF
     12  -1.93204553E+004  1.13770439E+000   1.25338500E-006    7108.94  <-- SCF
     13  -1.93204553E+004  1.13664941E+000  -1.25513344E-006    7227.60  <-- SCF
     14  -1.93204553E+004  1.13681685E+000  -1.75503417E-006    7332.35  <-- SCF
     15  -1.93204553E+004  1.13670610E+000   6.86813116E-007    7429.23  <-- SCF
     16  -1.93204553E+004  1.13679420E+000  -9.24555598E-007    7509.70  <-- SCF
     17  -1.93204553E+004  1.13691227E+000   1.45733795E-008    7591.50  <-- SCF
     18  -1.93204553E+004  1.13696072E+000  -6.27892863E-009    7674.60  <-- SCF
------------------------------------------------------------------------ <-- SCF
 
Final energy, E             =  -19319.73670393     eV
Final free energy (E-TS)    =  -19320.45525822     eV
(energies not corrected for finite basis set)
 
NB est. 0K energy (E-0.5TS)      =  -19320.09598107     eV
 
 For future reference: finite basis dEtot/dlog(Ecut) =     -31.549025eV
 Total energy corrected for finite basis set =  -19320.450054 eV
 
+---------------- MEMORY AND SCRATCH DISK ESTIMATES PER NODE -----------------+
|                                                     Memory          Disk    |
| Model and support data                              713.6 MB         0.0 MB |
| Electronic energy minimisation requirements         288.8 MB         0.0 MB |
| Geometry minimisation requirements                  413.0 MB         0.0 MB |
|                                               ----------------------------- |
| Approx. total storage required per node            1415.5 MB         0.0 MB |
|                                                                             |
| Requirements will fluctuate during execution and may exceed these estimates |
+-----------------------------------------------------------------------------+
 

 *********************************** Forces ***********************************
 *                                                                            *
 *                        Cartesian components (eV/A)                         *
 * -------------------------------------------------------------------------- *
 *                   x                    y                    z              *
 *                                                                            *
 * O         1      1.17977              1.17977              1.37235         *
 * O         2     -1.18658              1.31786              1.16288         *
 * O         3     -0.00686             -0.00686              0.96578         *
 * O         4      1.31786             -1.18658              1.16288         *
 * O         5     -1.17367             -1.17367              1.02816         *
 * O         6     -0.14684              1.11670              0.39535         *
 * O         7      1.11670             -0.14684              0.39535         *
 * O         8     -1.05331             -0.23417              0.38220         *
 * O         9     -0.23417             -1.05331              0.38220         *
 * O        10      1.34687              1.34687             -1.71909         *
 * O        11     -1.35416              1.48637             -1.51154         *
 * O        12     -0.01007             -0.01007             -1.21200         *
 * O        13      1.48637             -1.35416             -1.51154         *
 * O        14     -1.29115             -1.29115             -1.29734         *
 * Mg        1      0.00126              1.67515              2.70166         *
 * Mg        2      1.67515              0.00126              2.70166         *
 * Mg        3     -1.67348              0.02334              2.76569         *
 * Mg        4      0.02334             -1.67348              2.76569         *
 * Mg        5      0.05320              0.05320             -0.17016         *
 * Mg        6     -2.64816             -2.64816             -0.05680         *
 * Ca        1      3.30280              3.30280             -0.10071         *
 * Ca        2     -3.52198              2.76305             -0.10114         *
 * Ca        3      2.76305             -3.52198             -0.10114         *
 * Ca        4      0.00614              3.27220             -2.55704         *
 * Ca        5      3.27220              0.00614             -2.55704         *
 * Ca        6     -3.27667              0.03239             -2.64315         *
 * Ca        7      0.03239             -3.27667             -2.64315         *
 *                                                                            *
 ******************************************************************************

 ***************** Stress Tensor *****************
 *                                               *
 *          Cartesian components (GPa)           *
 * --------------------------------------------- *
 *             x             y             z     *
 *                                               *
 *  x     15.208168      0.356796     -0.040802  *
 *  y      0.356796     15.208168     -0.040802  *
 *  z     -0.040802     -0.040802     15.160840  *
 *                                               *
 *  Pressure:  -15.1924                          *
 *                                               *
 *************************************************

 *********** Constrained Stress Tensor ***********
 *                                               *
 *          Cartesian components (GPa)           *
 * --------------------------------------------- *
 *             x             y             z     *
 *                                               *
 *  x     15.504857     -0.000000     -0.000000  *
 *  y     -0.000000     15.504857     -0.000000  *
 *  z     -0.000000     -0.000000     15.504857  *
 *                                               *
 *  Pressure:  -15.5049                          *
 *                                               *
 *************************************************
 BFGS: finished iteration     0 with enthalpy= -1.93204501E+004 eV
  
 +-----------+-----------------+-----------------+------------+-----+ <-- BFGS
 | Parameter |      value      |    tolerance    |    units   | OK? | <-- BFGS
 +-----------+-----------------+-----------------+------------+-----+ <-- BFGS
 |  dE/ion   |   0.000000E+000 |   2.000000E-005 |         eV | No  | <-- BFGS
 |  |F|max   |   4.671945E+000 |   5.000000E-002 |       eV/A | No  | <-- BFGS
 |  |dR|max  |   0.000000E+000 |   1.000000E-003 |          A | No  | <-- BFGS
 |   Smax    |   1.519237E+001 |   1.000000E-001 |        GPa | No  | <-- BFGS
 +-----------+-----------------+-----------------+------------+-----+ <-- BFGS
  

================================================================================
 Starting BFGS iteration          1 ...
================================================================================
  
 +------------+-------------+-------------+-----------------+ <-- min BFGS
 |    Step    |   lambda    |   F.delta   |    enthalpy     | <-- min BFGS
 +------------+-------------+-------------+-----------------+ <-- min BFGS
 |  previous  |    0.000000 |    0.098051 |   -19320.450054 | <-- min BFGS
 +------------+-------------+-------------+-----------------+ <-- min BFGS
  

--------------------------------------------------------------------------------
 BFGS: starting iteration         1 with trial guess (lambda=  1.000000)
--------------------------------------------------------------------------------

                           -------------------------------
                                      Unit Cell
                           -------------------------------
        Real Lattice(A)              Reciprocal Lattice(1/A)
   8.3149227   0.0000000   0.0000000        0.7556517  -0.0000000  -0.0000000
   0.0000000   8.3149227   0.0000000       -0.0000000   0.7556517  -0.0000000
   0.0000000   0.0000000   8.3149227       -0.0000000  -0.0000000   0.7556517

                       Lattice parameters(A)       Cell Angles
                    a =    8.314923          alpha =   90.000000
                    b =    8.314923          beta  =   90.000000
                    c =    8.314923          gamma =   90.000000

                Current cell volume =  574.876625 A**3

                           -------------------------------
                                     Cell Contents
                           -------------------------------

            xxxxxxxxxxxxxxxxxxxxxxxxxxxxxxxxxxxxxxxxxxxxxxxxxxxxxxxxxxxx
            x  Element    Atom        Fractional coordinates of atoms  x
            x            Number           u          v          w      x
            x----------------------------------------------------------x
            x  O            1         0.000570   0.000570   0.000663   x
            x  O            2         0.666093   0.000637   0.000562   x
            x  O            3         0.333330   0.333330   0.000467   x
            x  O            4         0.000637   0.666093   0.000562   x
            x  O            5         0.666100   0.666100   0.000497   x
            x  O            6         0.333262   0.000540   0.333524   x
            x  O            7         0.000540   0.333262   0.333524   x
            x  O            8         0.666158   0.333220   0.333518   x
            x  O            9         0.333220   0.666158   0.333518   x
            x  O           10         0.000651   0.000651   0.665836   x
            x  O           11         0.666012   0.000718   0.665936   x
            x  O           12         0.333328   0.333328   0.666081   x
            x  O           13         0.000718   0.666012   0.665936   x
            x  O           14         0.666043   0.666043   0.666040   x
            x  Mg           1         0.333334   0.000809   0.001305   x
            x  Mg           2         0.000809   0.333334   0.001305   x
            x  Mg           3         0.665858   0.333345   0.001336   x
            x  Mg           4         0.333345   0.665858   0.001336   x
            x  Mg           5         0.333359   0.333359   0.333251   x
            x  Mg           6         0.665387   0.665387   0.333306   x
            x  Ca           1         0.001596   0.001596   0.333285   x
            x  Ca           2         0.664965   0.001335   0.333284   x
            x  Ca           3         0.001335   0.664965   0.333284   x
            x  Ca           4         0.333336   0.001581   0.665431   x
            x  Ca           5         0.001581   0.333336   0.665431   x
            x  Ca           6         0.665084   0.333349   0.665390   x
            x  Ca           7         0.333349   0.665084   0.665390   x
            xxxxxxxxxxxxxxxxxxxxxxxxxxxxxxxxxxxxxxxxxxxxxxxxxxxxxxxxxxxx


------------------------------------------------------------------------ <-- SCF
SCF loop      Energy           Fermi           Energy gain       Timer   <-- SCF
                               energy          per atom          (sec)   <-- SCF
------------------------------------------------------------------------ <-- SCF
Initial  -1.93158319E+004  0.00000000E+000                      8047.70  <-- SCF
      1  -1.93310541E+004  2.24247886E+000   5.63783804E-001    8145.79  <-- SCF
      2  -1.93313644E+004  2.23824663E+000   1.14925130E-002    8273.57  <-- SCF
      3  -1.93417347E+004  8.00606484E-001   3.84084864E-001    8409.53  <-- SCF
      4  -1.93266947E+004  1.80244992E+000  -5.57036148E-001    8528.14  <-- SCF
      5  -1.93261937E+004  1.71590699E+000  -1.85543200E-002    8678.93  <-- SCF
      6  -1.93240579E+004  1.58922321E+000  -7.91064702E-002    8810.45  <-- SCF
      7  -1.93240674E+004  1.50444155E+000   3.54440818E-004    8935.33  <-- SCF
      8  -1.93234610E+004  1.40456885E+000  -2.24609067E-002    9068.89  <-- SCF
      9  -1.93232683E+004  1.35082144E+000  -7.13812998E-003    9183.93  <-- SCF
     10  -1.93232462E+004  1.35206714E+000  -8.17032925E-004    9320.28  <-- SCF
     11  -1.93232608E+004  1.34852177E+000   5.38621059E-004    9495.43  <-- SCF
     12  -1.93232163E+004  1.32770075E+000  -1.64646954E-003    9685.14  <-- SCF
     13  -1.93231878E+004  1.31934944E+000  -1.05545617E-003    9802.80  <-- SCF
     14  -1.93231774E+004  1.31244541E+000  -3.84377288E-004    9920.71  <-- SCF
     15  -1.93231740E+004  1.31107722E+000  -1.25157399E-004   10079.61  <-- SCF
     16  -1.93231720E+004  1.31300030E+000  -7.71559478E-005   10189.73  <-- SCF
     17  -1.93231721E+004  1.31340779E+000   4.67496949E-006   10293.63  <-- SCF
     18  -1.93231720E+004  1.31303729E+000  -1.99821412E-006   10400.44  <-- SCF
     19  -1.93231720E+004  1.31317932E+000  -6.57089806E-007   10506.75  <-- SCF
     20  -1.93231720E+004  1.31324984E+000  -5.02011807E-008   10609.12  <-- SCF
     21  -1.93231720E+004  1.31317855E+000  -5.85397437E-008   10690.13  <-- SCF
     22  -1.93231720E+004  1.31319573E+000  -7.28445549E-009   10764.91  <-- SCF
------------------------------------------------------------------------ <-- SCF
 
Final energy, E             =  -19322.49658931     eV
Final free energy (E-TS)    =  -19323.17201194     eV
(energies not corrected for finite basis set)
 
NB est. 0K energy (E-0.5TS)      =  -19322.83430062     eV
 

 *********************************** Forces ***********************************
 *                                                                            *
 *                        Cartesian components (eV/A)                         *
 * -------------------------------------------------------------------------- *
 *                   x                    y                    z              *
 *                                                                            *
 * O         1      1.23559              1.23559              1.38847         *
 * O         2     -1.24238              1.37362              1.18364         *
 * O         3     -0.00683             -0.00683              1.01607         *
 * O         4      1.37362             -1.24238              1.18364         *
 * O         5     -1.21917             -1.21917              1.09541         *
 * O         6     -0.14153              1.18459              0.38577         *
 * O         7      1.18459             -0.14153              0.38577         *
 * O         8     -1.11966             -0.22339              0.37217         *
 * O         9     -0.22339             -1.11966              0.37217         *
 * O        10      1.38197              1.38197             -1.75731         *
 * O        11     -1.38926              1.52246             -1.55480         *
 * O        12     -0.01035             -0.01035             -1.27385         *
 * O        13      1.52246             -1.38926             -1.55480         *
 * O        14     -1.31196             -1.31196             -1.38054         *
 * Mg        1      0.00100              1.77230              2.75002         *
 * Mg        2      1.77230              0.00100              2.75002         *
 * Mg        3     -1.76974              0.02370              2.81754         *
 * Mg        4      0.02370             -1.76974              2.81754         *
 * Mg        5      0.05814              0.05814             -0.18808         *
 * Mg        6     -2.72977             -2.72977             -0.05911         *
 * Ca        1      3.28581              3.28581             -0.10469         *
 * Ca        2     -3.49775              2.78907             -0.10506         *
 * Ca        3      2.78907             -3.49775             -0.10506         *
 * Ca        4      0.00596              3.23873             -2.56257         *
 * Ca        5      3.23873              0.00596             -2.56257         *
 * Ca        6     -3.24246              0.03133             -2.65490         *
 * Ca        7      0.03133             -3.24246             -2.65490         *
 *                                                                            *
 ******************************************************************************

 ***************** Stress Tensor *****************
 *                                               *
 *          Cartesian components (GPa)           *
 * --------------------------------------------- *
 *             x             y             z     *
 *                                               *
 *  x     15.561926      0.365085     -0.045542  *
 *  y      0.365085     15.561926     -0.045542  *
 *  z     -0.045542     -0.045542     15.477103  *
 *                                               *
 *  Pressure:  -15.5337                          *
 *                                               *
 *************************************************

 *********** Constrained Stress Tensor ***********
 *                                               *
 *          Cartesian components (GPa)           *
 * --------------------------------------------- *
 *             x             y             z     *
 *                                               *
 *  x     15.857065      0.000000      0.000000  *
 *  y      0.000000     15.857065      0.000000  *
 *  z      0.000000      0.000000     15.857065  *
 *                                               *
 *  Pressure:  -15.8571                          *
 *                                               *
 *************************************************
  
 +------------+-------------+-------------+-----------------+ <-- min BFGS
 |    Step    |   lambda    |   F.delta   |    enthalpy     | <-- min BFGS
 +------------+-------------+-------------+-----------------+ <-- min BFGS
 |  previous  |    0.000000 |    0.098051 |   -19320.450054 | <-- min BFGS
 | trial step |    1.000000 |    0.098230 |   -19323.173606 | <-- min BFGS
 +------------+-------------+-------------+-----------------+ <-- min BFGS
  
 BFGS: finished iteration     1 with enthalpy= -1.93231736E+004 eV
  
 +-----------+-----------------+-----------------+------------+-----+ <-- BFGS
 | Parameter |      value      |    tolerance    |    units   | OK? | <-- BFGS
 +-----------+-----------------+-----------------+------------+-----+ <-- BFGS
 |  dE/ion   |   1.008723E-001 |   2.000000E-005 |         eV | No  | <-- BFGS
 |  |F|max   |   4.648012E+000 |   5.000000E-002 |       eV/A | No  | <-- BFGS
 |  |dR|max  |   1.876909E-002 |   1.000000E-003 |          A | No  | <-- BFGS
 |   Smax    |   1.553363E+001 |   1.000000E-001 |        GPa | No  | <-- BFGS
 +-----------+-----------------+-----------------+------------+-----+ <-- BFGS
  

================================================================================
 Starting BFGS iteration          2 ...
================================================================================
  
 +------------+-------------+-------------+-----------------+ <-- min BFGS
 |    Step    |   lambda    |   F.delta   |    enthalpy     | <-- min BFGS
 +------------+-------------+-------------+-----------------+ <-- min BFGS
 |  previous  |    0.000000 |    0.098425 |   -19323.173606 | <-- min BFGS
 +------------+-------------+-------------+-----------------+ <-- min BFGS
  

--------------------------------------------------------------------------------
 BFGS: starting iteration         2 with trial guess (lambda=  1.000000)
--------------------------------------------------------------------------------

                           -------------------------------
                                      Unit Cell
                           -------------------------------
        Real Lattice(A)              Reciprocal Lattice(1/A)
   8.2296875   0.0000000   0.0000000        0.7634780  -0.0000000  -0.0000000
   0.0000000   8.2296875   0.0000000       -0.0000000   0.7634780  -0.0000000
   0.0000000   0.0000000   8.2296875       -0.0000000  -0.0000000   0.7634780

                       Lattice parameters(A)       Cell Angles
                    a =    8.229688          alpha =   90.000000
                    b =    8.229688          beta  =   90.000000
                    c =    8.229688          gamma =   90.000000

                Current cell volume =  557.378274 A**3

                           -------------------------------
                                     Cell Contents
                           -------------------------------

            xxxxxxxxxxxxxxxxxxxxxxxxxxxxxxxxxxxxxxxxxxxxxxxxxxxxxxxxxxxx
            x  Element    Atom        Fractional coordinates of atoms  x
            x            Number           u          v          w      x
            x----------------------------------------------------------x
            x  O            1         0.001161   0.001161   0.001327   x
            x  O            2         0.665499   0.001294   0.001128   x
            x  O            3         0.333327   0.333327   0.000953   x
            x  O            4         0.001294   0.665499   0.001128   x
            x  O            5         0.665517   0.665517   0.001021   x
            x  O            6         0.333195   0.001106   0.333709   x
            x  O            7         0.001106   0.333195   0.333709   x
            x  O            8         0.665622   0.333113   0.333696   x
            x  O            9         0.333113   0.665622   0.333696   x
            x  O           10         0.001312   0.001312   0.664996   x
            x  O           11         0.665348   0.001446   0.665193   x
            x  O           12         0.333324   0.333324   0.665472   x
            x  O           13         0.001446   0.665348   0.665193   x
            x  O           14         0.665415   0.665415   0.665380   x
            x  Mg           1         0.333334   0.001657   0.002621   x
            x  Mg           2         0.001657   0.333334   0.002621   x
            x  Mg           3         0.665012   0.333356   0.002684   x
            x  Mg           4         0.333356   0.665012   0.002684   x
            x  Mg           5         0.333387   0.333387   0.333161   x
            x  Mg           6         0.664082   0.664082   0.333278   x
            x  Ca           1         0.003167   0.003167   0.333235   x
            x  Ca           2         0.663292   0.002669   0.333234   x
            x  Ca           3         0.002669   0.663292   0.333234   x
            x  Ca           4         0.333339   0.003130   0.664206   x
            x  Ca           5         0.003130   0.333339   0.664206   x
            x  Ca           6         0.663533   0.333364   0.664120   x
            x  Ca           7         0.333364   0.663533   0.664120   x
            xxxxxxxxxxxxxxxxxxxxxxxxxxxxxxxxxxxxxxxxxxxxxxxxxxxxxxxxxxxx


------------------------------------------------------------------------ <-- SCF
SCF loop      Energy           Fermi           Energy gain       Timer   <-- SCF
                               energy          per atom          (sec)   <-- SCF
------------------------------------------------------------------------ <-- SCF
Initial  -1.93186324E+004  0.00000000E+000                     11148.45  <-- SCF
      1  -1.93336066E+004  2.43324259E+000   5.54598964E-001   11244.32  <-- SCF
      2  -1.93339119E+004  2.42901251E+000   1.13084469E-002   11382.07  <-- SCF
      3  -1.93430876E+004  9.50544857E-001   3.39838474E-001   11497.39  <-- SCF
      4  -1.93290205E+004  2.01407640E+000  -5.21003483E-001   11622.24  <-- SCF
      5  -1.93280461E+004  1.84084352E+000  -3.60879411E-002   11748.14  <-- SCF
      6  -1.93266729E+004  1.75972975E+000  -5.08599499E-002   11876.15  <-- SCF
      7  -1.93266005E+004  1.65711969E+000  -2.67888263E-003   12012.94  <-- SCF
      8  -1.93260887E+004  1.56966721E+000  -1.89578730E-002   12178.08  <-- SCF
      9  -1.93259664E+004  1.53337395E+000  -4.52708423E-003   12318.09  <-- SCF
     10  -1.93259508E+004  1.53252059E+000  -5.79152224E-004   12433.85  <-- SCF
     11  -1.93259735E+004  1.52652725E+000   8.40139008E-004   12548.56  <-- SCF
     12  -1.93259093E+004  1.50671001E+000  -2.37579586E-003   12658.70  <-- SCF
     13  -1.93259093E+004  1.50035596E+000  -3.40169188E-007   12776.42  <-- SCF
     14  -1.93258979E+004  1.49625081E+000  -4.24390153E-004   12898.08  <-- SCF
     15  -1.93258957E+004  1.49531477E+000  -8.08383173E-005   13022.93  <-- SCF
     16  -1.93258941E+004  1.49783653E+000  -6.04722818E-005   13130.12  <-- SCF
     17  -1.93258942E+004  1.49809473E+000   3.62332130E-006   13230.27  <-- SCF
     18  -1.93258941E+004  1.49746533E+000  -1.96274352E-006   13328.58  <-- SCF
     19  -1.93258941E+004  1.49742316E+000  -4.85170149E-008   13413.95  <-- SCF
     20  -1.93258941E+004  1.49746774E+000  -3.18563880E-008   13508.28  <-- SCF
------------------------------------------------------------------------ <-- SCF
 
Final energy, E             =  -19325.26223899     eV
Final free energy (E-TS)    =  -19325.89410543     eV
(energies not corrected for finite basis set)
 
NB est. 0K energy (E-0.5TS)      =  -19325.57817221     eV
 

 *********************************** Forces ***********************************
 *                                                                            *
 *                        Cartesian components (eV/A)                         *
 * -------------------------------------------------------------------------- *
 *                   x                    y                    z              *
 *                                                                            *
 * O         1      1.29177              1.29177              1.39807         *
 * O         2     -1.29897              1.42966              1.19769         *
 * O         3     -0.00701             -0.00701              1.06971         *
 * O         4      1.42966             -1.29897              1.19769         *
 * O         5     -1.26468             -1.26468              1.16589         *
 * O         6     -0.13491              1.25727              0.37401         *
 * O         7      1.25727             -0.13491              0.37401         *
 * O         8     -1.19011             -0.21026              0.35956         *
 * O         9     -0.21026             -1.19011              0.35956         *
 * O        10      1.41329              1.41329             -1.79133         *
 * O        11     -1.42006              1.55381             -1.59224         *
 * O        12     -0.01065             -0.01065             -1.34233         *
 * O        13      1.55381             -1.42006             -1.59224         *
 * O        14     -1.32821             -1.32821             -1.46700         *
 * Mg        1      0.00064              1.87124              2.79754         *
 * Mg        2      1.87124              0.00064              2.79754         *
 * Mg        3     -1.86754              0.02453              2.86854         *
 * Mg        4      0.02453             -1.86754              2.86854         *
 * Mg        5      0.06332              0.06332             -0.20713         *
 * Mg        6     -2.81263             -2.81263             -0.06255         *
 * Ca        1      3.26587              3.26587             -0.10979         *
 * Ca        2     -3.47002              2.80944             -0.10984         *
 * Ca        3      2.80944             -3.47002             -0.10984         *
 * Ca        4      0.00548              3.20059             -2.56148         *
 * Ca        5      3.20059              0.00548             -2.56148         *
 * Ca        6     -3.20337              0.03153             -2.66055         *
 * Ca        7      0.03153             -3.20337             -2.66055         *
 *                                                                            *
 ******************************************************************************

 ***************** Stress Tensor *****************
 *                                               *
 *          Cartesian components (GPa)           *
 * --------------------------------------------- *
 *             x             y             z     *
 *                                               *
 *  x     15.861452      0.372508     -0.050762  *
 *  y      0.372508     15.861452     -0.050762  *
 *  z     -0.050762     -0.050762     15.743877  *
 *                                               *
 *  Pressure:  -15.8223                          *
 *                                               *
 *************************************************

 *********** Constrained Stress Tensor ***********
 *                                               *
 *          Cartesian components (GPa)           *
 * --------------------------------------------- *
 *             x             y             z     *
 *                                               *
 *  x     16.154407     -0.000000     -0.000000  *
 *  y     -0.000000     16.154407     -0.000000  *
 *  z     -0.000000     -0.000000     16.154407  *
 *                                               *
 *  Pressure:  -16.1544                          *
 *                                               *
 *************************************************
  
 +------------+-------------+-------------+-----------------+ <-- min BFGS
 |    Step    |   lambda    |   F.delta   |    enthalpy     | <-- min BFGS
 +------------+-------------+-------------+-----------------+ <-- min BFGS
 |  previous  |    0.000000 |    0.098425 |   -19323.173606 | <-- min BFGS
 | trial step |    1.000000 |    0.098320 |   -19325.905786 | <-- min BFGS
 +------------+-------------+-------------+-----------------+ <-- min BFGS
  
 BFGS: finished iteration     2 with enthalpy= -1.93259058E+004 eV
  
 +-----------+-----------------+-----------------+------------+-----+ <-- BFGS
 | Parameter |      value      |    tolerance    |    units   | OK? | <-- BFGS
 +-----------+-----------------+-----------------+------------+-----+ <-- BFGS
 |  dE/ion   |   1.011918E-001 |   2.000000E-005 |         eV | No  | <-- BFGS
 |  |F|max   |   4.619937E+000 |   5.000000E-002 |       eV/A | No  | <-- BFGS
 |  |dR|max  |   1.829434E-002 |   1.000000E-003 |          A | No  | <-- BFGS
 |   Smax    |   1.582224E+001 |   1.000000E-001 |        GPa | No  | <-- BFGS
 +-----------+-----------------+-----------------+------------+-----+ <-- BFGS
  

================================================================================
 Starting BFGS iteration          3 ...
================================================================================
  
 +------------+-------------+-------------+-----------------+ <-- min BFGS
 |    Step    |   lambda    |   F.delta   |    enthalpy     | <-- min BFGS
 +------------+-------------+-------------+-----------------+ <-- min BFGS
 |  previous  |    0.000000 |    0.098231 |   -19325.905786 | <-- min BFGS
 +------------+-------------+-------------+-----------------+ <-- min BFGS
  

--------------------------------------------------------------------------------
 BFGS: starting iteration         3 with trial guess (lambda=  1.000000)
--------------------------------------------------------------------------------

                           -------------------------------
                                      Unit Cell
                           -------------------------------
        Real Lattice(A)              Reciprocal Lattice(1/A)
   8.1446395   0.0000000   0.0000000        0.7714504  -0.0000000  -0.0000000
   0.0000000   8.1446395   0.0000000       -0.0000000   0.7714504  -0.0000000
   0.0000000   0.0000000   8.1446395       -0.0000000  -0.0000000   0.7714504

                       Lattice parameters(A)       Cell Angles
                    a =    8.144639          alpha =   90.000000
                    b =    8.144639          beta  =   90.000000
                    c =    8.144639          gamma =   90.000000

                Current cell volume =  540.275903 A**3

                           -------------------------------
                                     Cell Contents
                           -------------------------------

            xxxxxxxxxxxxxxxxxxxxxxxxxxxxxxxxxxxxxxxxxxxxxxxxxxxxxxxxxxxx
            x  Element    Atom        Fractional coordinates of atoms  x
            x            Number           u          v          w      x
            x----------------------------------------------------------x
            x  O            1         0.001772   0.001772   0.001989   x
            x  O            2         0.664884   0.001970   0.001695   x
            x  O            3         0.333323   0.333323   0.001459   x
            x  O            4         0.001970   0.664884   0.001695   x
            x  O            5         0.664918   0.664918   0.001573   x
            x  O            6         0.333131   0.001701   0.333886   x
            x  O            7         0.001701   0.333131   0.333886   x
            x  O            8         0.665059   0.333014   0.333866   x
            x  O            9         0.333014   0.665059   0.333866   x
            x  O           10         0.001981   0.001981   0.664148   x
            x  O           11         0.664676   0.002182   0.664439   x
            x  O           12         0.333318   0.333318   0.664836   x
            x  O           13         0.002182   0.664676   0.664439   x
            x  O           14         0.664787   0.664787   0.664685   x
            x  Mg           1         0.333335   0.002543   0.003945   x
            x  Mg           2         0.002543   0.333335   0.003945   x
            x  Mg           3         0.664128   0.333368   0.004042   x
            x  Mg           4         0.333368   0.664128   0.004042   x
            x  Mg           5         0.333417   0.333417   0.333063   x
            x  Mg           6         0.662750   0.662750   0.333248   x
            x  Ca           1         0.004713   0.004713   0.333183   x
            x  Ca           2         0.661650   0.003999   0.333182   x
            x  Ca           3         0.003999   0.661650   0.333182   x
            x  Ca           4         0.333342   0.004645   0.662993   x
            x  Ca           5         0.004645   0.333342   0.662993   x
            x  Ca           6         0.662016   0.333379   0.662860   x
            x  Ca           7         0.333379   0.662016   0.662860   x
            xxxxxxxxxxxxxxxxxxxxxxxxxxxxxxxxxxxxxxxxxxxxxxxxxxxxxxxxxxxx


------------------------------------------------------------------------ <-- SCF
SCF loop      Energy           Fermi           Energy gain       Timer   <-- SCF
                               energy          per atom          (sec)   <-- SCF
------------------------------------------------------------------------ <-- SCF
Initial  -1.93214927E+004  0.00000000E+000                     13839.66  <-- SCF
      1  -1.93361431E+004  2.62488177E+000   5.42606746E-001   13937.51  <-- SCF
      2  -1.93364393E+004  2.62076632E+000   1.09700978E-002   14083.52  <-- SCF
      3  -1.93444243E+004  1.07697911E+000   2.95742377E-001   14197.98  <-- SCF
      4  -1.93314960E+004  2.23542468E+000  -4.78826666E-001   14310.99  <-- SCF
      5  -1.93307163E+004  2.01954320E+000  -2.88798898E-002   14427.53  <-- SCF
      6  -1.93293410E+004  1.93358050E+000  -5.09347987E-002   14563.81  <-- SCF
      7  -1.93293341E+004  1.86127161E+000  -2.56286269E-004   14768.37  <-- SCF
      8  -1.93288512E+004  1.76751437E+000  -1.78856074E-002   14910.10  <-- SCF
      9  -1.93287087E+004  1.72463636E+000  -5.27667604E-003   15024.91  <-- SCF
     10  -1.93287047E+004  1.72206918E+000  -1.50021774E-004   15136.96  <-- SCF
     11  -1.93287102E+004  1.71479957E+000   2.02816787E-004   15254.19  <-- SCF
     12  -1.93286578E+004  1.69785440E+000  -1.93743066E-003   15375.75  <-- SCF
     13  -1.93286621E+004  1.69166705E+000   1.56117942E-004   15494.39  <-- SCF
     14  -1.93286514E+004  1.68867453E+000  -3.93783134E-004   15603.03  <-- SCF
     15  -1.93286498E+004  1.68782707E+000  -6.13414463E-005   15706.30  <-- SCF
     16  -1.93286487E+004  1.69021469E+000  -4.04143072E-005   15812.81  <-- SCF
     17  -1.93286487E+004  1.69016692E+000   1.01048816E-006   15921.13  <-- SCF
     18  -1.93286487E+004  1.68970791E+000  -1.22805857E-006   16018.25  <-- SCF
     19  -1.93286487E+004  1.68975538E+000  -1.07090444E-007   16095.97  <-- SCF
     20  -1.93286487E+004  1.68976994E+000   1.16986451E-008   16170.42  <-- SCF
     21  -1.93286487E+004  1.68974361E+000  -4.67210220E-009   16244.12  <-- SCF
------------------------------------------------------------------------ <-- SCF
 
Final energy, E             =  -19328.05764008     eV
Final free energy (E-TS)    =  -19328.64867186     eV
(energies not corrected for finite basis set)
 
NB est. 0K energy (E-0.5TS)      =  -19328.35315597     eV
 

 *********************************** Forces ***********************************
 *                                                                            *
 *                        Cartesian components (eV/A)                         *
 * -------------------------------------------------------------------------- *
 *                   x                    y                    z              *
 *                                                                            *
 * O         1      1.35184              1.35184              1.41103         *
 * O         2     -1.35970              1.48711              1.22022         *
 * O         3     -0.00823             -0.00823              1.11102         *
 * O         4      1.48711             -1.35970              1.22022         *
 * O         5     -1.31004             -1.31004              1.23788         *
 * O         6     -0.12775              1.31889              0.35811         *
 * O         7      1.31889             -0.12775              0.35811         *
 * O         8     -1.24507             -0.19352              0.34168         *
 * O         9     -0.19352             -1.24507              0.34168         *
 * O        10      1.44818              1.44818             -1.82743         *
 * O        11     -1.45789              1.58886             -1.63922         *
 * O        12     -0.01144             -0.01144             -1.39578         *
 * O        13      1.58886             -1.45789             -1.63922         *
 * O        14     -1.34456             -1.34456             -1.55526         *
 * Mg        1      0.00020              1.97011              2.84208         *
 * Mg        2      1.97011              0.00020              2.84208         *
 * Mg        3     -1.96612              0.02482              2.91679         *
 * Mg        4      0.02482             -1.96612              2.91679         *
 * Mg        5      0.06807              0.06807             -0.22780         *
 * Mg        6     -2.89326             -2.89326             -0.06622         *
 * Ca        1      3.24039              3.24039             -0.11639         *
 * Ca        2     -3.43690              2.82147             -0.11485         *
 * Ca        3      2.82147             -3.43690             -0.11485         *
 * Ca        4      0.00581              3.15680             -2.55187         *
 * Ca        5      3.15680              0.00581             -2.55187         *
 * Ca        6     -3.15918              0.03110             -2.65846         *
 * Ca        7      0.03110             -3.15918             -2.65846         *
 *                                                                            *
 ******************************************************************************

 ***************** Stress Tensor *****************
 *                                               *
 *          Cartesian components (GPa)           *
 * --------------------------------------------- *
 *             x             y             z     *
 *                                               *
 *  x     16.042568      0.379851     -0.056435  *
 *  y      0.379851     16.042568     -0.056435  *
 *  z     -0.056435     -0.056435     15.892263  *
 *                                               *
 *  Pressure:  -15.9925                          *
 *                                               *
 *************************************************

 *********** Constrained Stress Tensor ***********
 *                                               *
 *          Cartesian components (GPa)           *
 * --------------------------------------------- *
 *             x             y             z     *
 *                                               *
 *  x     16.328296     -0.000000      0.000000  *
 *  y     -0.000000     16.328296      0.000000  *
 *  z      0.000000      0.000000     16.328296  *
 *                                               *
 *  Pressure:  -16.3283                          *
 *                                               *
 *************************************************
  
 +------------+-------------+-------------+-----------------+ <-- min BFGS
 |    Step    |   lambda    |   F.delta   |    enthalpy     | <-- min BFGS
 +------------+-------------+-------------+-----------------+ <-- min BFGS
 |  previous  |    0.000000 |    0.098231 |   -19325.905786 | <-- min BFGS
 | trial step |    1.000000 |    0.097602 |   -19328.621550 | <-- min BFGS
 +------------+-------------+-------------+-----------------+ <-- min BFGS
  
 BFGS: finished iteration     3 with enthalpy= -1.93286216E+004 eV
  
 +-----------+-----------------+-----------------+------------+-----+ <-- BFGS
 | Parameter |      value      |    tolerance    |    units   | OK? | <-- BFGS
 +-----------+-----------------+-----------------+------------+-----+ <-- BFGS
 |  dE/ion   |   1.005839E-001 |   2.000000E-005 |         eV | No  | <-- BFGS
 |  |F|max   |   4.584078E+000 |   5.000000E-002 |       eV/A | No  | <-- BFGS
 |  |dR|max  |   1.781144E-002 |   1.000000E-003 |          A | No  | <-- BFGS
 |   Smax    |   1.599245E+001 |   1.000000E-001 |        GPa | No  | <-- BFGS
 +-----------+-----------------+-----------------+------------+-----+ <-- BFGS
  

================================================================================
 Starting BFGS iteration          4 ...
================================================================================
  
 +------------+-------------+-------------+-----------------+ <-- min BFGS
 |    Step    |   lambda    |   F.delta   |    enthalpy     | <-- min BFGS
 +------------+-------------+-------------+-----------------+ <-- min BFGS
 |  previous  |    0.000000 |    0.096996 |   -19328.621550 | <-- min BFGS
 +------------+-------------+-------------+-----------------+ <-- min BFGS
  

--------------------------------------------------------------------------------
 BFGS: starting iteration         4 with trial guess (lambda=  1.000000)
--------------------------------------------------------------------------------

                           -------------------------------
                                      Unit Cell
                           -------------------------------
        Real Lattice(A)              Reciprocal Lattice(1/A)
   8.0604441   0.0000000   0.0000000        0.7795086  -0.0000000  -0.0000000
   0.0000000   8.0604441   0.0000000       -0.0000000   0.7795086  -0.0000000
   0.0000000   0.0000000   8.0604441       -0.0000000  -0.0000000   0.7795086

                       Lattice parameters(A)       Cell Angles
                    a =    8.060444          alpha =   90.000000
                    b =    8.060444          beta  =   90.000000
                    c =    8.060444          gamma =   90.000000

                Current cell volume =  523.693175 A**3

                           -------------------------------
                                     Cell Contents
                           -------------------------------

            xxxxxxxxxxxxxxxxxxxxxxxxxxxxxxxxxxxxxxxxxxxxxxxxxxxxxxxxxxxx
            x  Element    Atom        Fractional coordinates of atoms  x
            x            Number           u          v          w      x
            x----------------------------------------------------------x
            x  O            1         0.002406   0.002406   0.002650   x
            x  O            2         0.664247   0.002667   0.002267   x
            x  O            3         0.333320   0.333320   0.001979   x
            x  O            4         0.002667   0.664247   0.002267   x
            x  O            5         0.664304   0.664304   0.002152   x
            x  O            6         0.333071   0.002319   0.334054   x
            x  O            7         0.002319   0.333071   0.334054   x
            x  O            8         0.664476   0.332923   0.334026   x
            x  O            9         0.332923   0.664476   0.334026   x
            x  O           10         0.002659   0.002659   0.663292   x
            x  O           11         0.663993   0.002926   0.663671   x
            x  O           12         0.333313   0.333313   0.664183   x
            x  O           13         0.002926   0.663993   0.663671   x
            x  O           14         0.664157   0.664157   0.663957   x
            x  Mg           1         0.333335   0.003466   0.005276   x
            x  Mg           2         0.003466   0.333335   0.005276   x
            x  Mg           3         0.663207   0.333379   0.005408   x
            x  Mg           4         0.333379   0.663207   0.005408   x
            x  Mg           5         0.333449   0.333449   0.332956   x
            x  Mg           6         0.661395   0.661395   0.333217   x
            x  Ca           1         0.006231   0.006231   0.333128   x
            x  Ca           2         0.660040   0.005321   0.333128   x
            x  Ca           3         0.005321   0.660040   0.333128   x
            x  Ca           4         0.333344   0.006124   0.661798   x
            x  Ca           5         0.006124   0.333344   0.661798   x
            x  Ca           6         0.660536   0.333393   0.661615   x
            x  Ca           7         0.333393   0.660536   0.661615   x
            xxxxxxxxxxxxxxxxxxxxxxxxxxxxxxxxxxxxxxxxxxxxxxxxxxxxxxxxxxxx


------------------------------------------------------------------------ <-- SCF
SCF loop      Energy           Fermi           Energy gain       Timer   <-- SCF
                               energy          per atom          (sec)   <-- SCF
------------------------------------------------------------------------ <-- SCF
Initial  -1.93243327E+004  0.00000000E+000                     16579.12  <-- SCF
      1  -1.93385990E+004  2.82522260E+000   5.28378654E-001   16670.80  <-- SCF
      2  -1.93388850E+004  2.82125518E+000   1.05942016E-002   16821.64  <-- SCF
      3  -1.93459940E+004  1.21942131E+000   2.63294828E-001   16930.44  <-- SCF
      4  -1.93339315E+004  2.44723901E+000  -4.46757464E-001   17160.90  <-- SCF
      5  -1.93330785E+004  2.20616203E+000  -3.15919706E-002   17282.43  <-- SCF
      6  -1.93319586E+004  2.12980065E+000  -4.14768780E-002   17395.20  <-- SCF
      7  -1.93319265E+004  2.05160952E+000  -1.19025706E-003   17507.32  <-- SCF
      8  -1.93314910E+004  1.96134039E+000  -1.61284550E-002   17621.47  <-- SCF
      9  -1.93313928E+004  1.92637076E+000  -3.64032285E-003   17733.29  <-- SCF
     10  -1.93313766E+004  1.92128420E+000  -5.97742274E-004   17841.81  <-- SCF
     11  -1.93313994E+004  1.91044335E+000   8.43961455E-004   17953.32  <-- SCF
     12  -1.93313388E+004  1.89389287E+000  -2.24455088E-003   18059.59  <-- SCF
     13  -1.93313423E+004  1.88981188E+000   1.29486121E-004   18168.52  <-- SCF
     14  -1.93313375E+004  1.88686253E+000  -1.79023706E-004   18274.29  <-- SCF
     15  -1.93313357E+004  1.88651732E+000  -6.36306140E-005   18378.62  <-- SCF
     16  -1.93313351E+004  1.88946823E+000  -2.28448981E-005   18483.35  <-- SCF
     17  -1.93313351E+004  1.88862426E+000  -2.63927554E-006   18578.51  <-- SCF
     18  -1.93313350E+004  1.88827779E+000  -5.34178928E-007   18674.20  <-- SCF
     19  -1.93313350E+004  1.88841636E+000  -1.16022745E-007   18749.84  <-- SCF
     20  -1.93313350E+004  1.88837855E+000   1.74276046E-008   18820.39  <-- SCF
     21  -1.93313350E+004  1.88835786E+000   1.60717016E-009   18889.07  <-- SCF
------------------------------------------------------------------------ <-- SCF
 
Final energy, E             =  -19330.78190249     eV
Final free energy (E-TS)    =  -19331.33503565     eV
(energies not corrected for finite basis set)
 
NB est. 0K energy (E-0.5TS)      =  -19331.05846907     eV
 

 *********************************** Forces ***********************************
 *                                                                            *
 *                        Cartesian components (eV/A)                         *
 * -------------------------------------------------------------------------- *
 *                   x                    y                    z              *
 *                                                                            *
 * O         1      1.41570              1.41570              1.41432         *
 * O         2     -1.42402              1.54815              1.23091         *
 * O         3     -0.00918             -0.00918              1.16339         *
 * O         4      1.54815             -1.42402              1.23091         *
 * O         5     -1.35897             -1.35897              1.31563         *
 * O         6     -0.11968              1.38927              0.33825         *
 * O         7      1.38927             -0.11968              0.33825         *
 * O         8     -1.31059             -0.17382              0.32018         *
[...]
 * O        14     -1.26699             -1.26699             -2.70112         *
 * Mg        1     -0.00360              2.48773              2.50888         *
 * Mg        2      2.48773             -0.00360              2.50888         *
 * Mg        3     -2.46819              0.06195              2.64769         *
 * Mg        4      0.06195             -2.46819              2.64769         *
 * Mg        5      0.09833              0.09833             -0.43369         *
 * Mg        6     -2.77115             -2.77115             -0.14001         *
 * Ca        1      1.46408              1.46408             -0.25424         *
 * Ca        2     -1.55953              1.31427             -0.25153         *
 * Ca        3      1.31427             -1.55953             -0.25153         *
 * Ca        4     -0.00623              1.34969             -1.00982         *
 * Ca        5      1.34969             -0.00623             -1.00982         *
 * Ca        6     -1.32509              0.09692             -1.20530         *
 * Ca        7      0.09692             -1.32509             -1.20530         *
 *                                                                            *
 ******************************************************************************

 ***************** Stress Tensor *****************
 *                                               *
 *          Cartesian components (GPa)           *
 * --------------------------------------------- *
 *             x             y             z     *
 *                                               *
 *  x      6.741722      0.457028     -0.111562  *
 *  y      0.457028      6.741722     -0.111562  *
 *  z     -0.111562     -0.111562      6.213917  *
 *                                               *
 *  Pressure:   -6.5658                          *
 *                                               *
 *************************************************

 *********** Constrained Stress Tensor ***********
 *                                               *
 *          Cartesian components (GPa)           *
 * --------------------------------------------- *
 *             x             y             z     *
 *                                               *
 *  x      6.615378     -0.000000      0.000000  *
 *  y     -0.000000      6.615378      0.000000  *
 *  z      0.000000      0.000000      6.615378  *
 *                                               *
 *  Pressure:   -6.6154                          *
 *                                               *
 *************************************************
  
 +------------+-------------+-------------+-----------------+ <-- min BFGS
 |    Step    |   lambda    |   F.delta   |    enthalpy     | <-- min BFGS
 +------------+-------------+-------------+-----------------+ <-- min BFGS
 |  previous  |    0.000000 |    0.030862 |   -19355.484465 | <-- min BFGS
 | trial step |    1.000000 |    0.028954 |   -19356.330996 | <-- min BFGS
 +------------+-------------+-------------+-----------------+ <-- min BFGS
  
 BFGS: finished iteration    18 with enthalpy= -1.93563310E+004 eV
  
 +-----------+-----------------+-----------------+------------+-----+ <-- BFGS
 | Parameter |      value      |    tolerance    |    units   | OK? | <-- BFGS
 +-----------+-----------------+-----------------+------------+-----+ <-- BFGS
 |  dE/ion   |   3.135298E-002 |   2.000000E-005 |         eV | No  | <-- BFGS
 |  |F|max   |   3.921503E+000 |   5.000000E-002 |       eV/A | No  | <-- BFGS
 |  |dR|max  |   1.204733E-002 |   1.000000E-003 |          A | No  | <-- BFGS
 |   Smax    |   6.565846E+000 |   1.000000E-001 |        GPa | No  | <-- BFGS
 +-----------+-----------------+-----------------+------------+-----+ <-- BFGS
  

================================================================================
 Starting BFGS iteration         19 ...
================================================================================
  
 +------------+-------------+-------------+-----------------+ <-- min BFGS
 |    Step    |   lambda    |   F.delta   |    enthalpy     | <-- min BFGS
 +------------+-------------+-------------+-----------------+ <-- min BFGS
 |  previous  |    0.000000 |    0.027279 |   -19356.330996 | <-- min BFGS
 +------------+-------------+-------------+-----------------+ <-- min BFGS
  

--------------------------------------------------------------------------------
 BFGS: starting iteration        19 with trial guess (lambda=  1.000000)
--------------------------------------------------------------------------------

                           -------------------------------
                                      Unit Cell
                           -------------------------------
        Real Lattice(A)              Reciprocal Lattice(1/A)
   7.1706993   0.0000000   0.0000000        0.8762305  -0.0000000  -0.0000000
   0.0000000   7.1706993   0.0000000       -0.0000000   0.8762305  -0.0000000
   0.0000000   0.0000000   7.1706993       -0.0000000  -0.0000000   0.8762305

                       Lattice parameters(A)       Cell Angles
                    a =    7.170699          alpha =   90.000000
                    b =    7.170699          beta  =   90.000000
                    c =    7.170699          gamma =   90.000000

                Current cell volume =  368.709669 A**3

                           -------------------------------
                                     Cell Contents
                           -------------------------------

            xxxxxxxxxxxxxxxxxxxxxxxxxxxxxxxxxxxxxxxxxxxxxxxxxxxxxxxxxxxx
            x  Element    Atom        Fractional coordinates of atoms  x
            x            Number           u          v          w      x
            x----------------------------------------------------------x
            x  O            1         0.014506   0.014506   0.011347   x
            x  O            2         0.652078   0.015481   0.010145   x
            x  O            3         0.333259   0.333259   0.011448   x
            x  O            4         0.015481   0.652078   0.010145   x
            x  O            5         0.653316   0.653316   0.013728   x
            x  O            6         0.332634   0.013504   0.334356   x
            x  O            7         0.013504   0.332634   0.334356   x
            x  O            8         0.653970   0.333570   0.334139   x
            x  O            9         0.333570   0.653970   0.334139   x
            x  O           10         0.013048   0.013048   0.650668   x
            x  O           11         0.653557   0.014029   0.651945   x
            x  O           12         0.333265   0.333265   0.652237   x
            x  O           13         0.014029   0.653557   0.651945   x
            x  O           14         0.655307   0.655307   0.649176   x
            x  Mg           1         0.333320   0.019351   0.023729   x
            x  Mg           2         0.019351   0.333320   0.023729   x
            x  Mg           3         0.647386   0.333629   0.024594   x
            x  Mg           4         0.333629   0.647386   0.024594   x
            x  Mg           5         0.334072   0.334072   0.330466   x
            x  Mg           6         0.641427   0.641427   0.332511   x
            x  Ca           1         0.022513   0.022513   0.331904   x
            x  Ca           2         0.642890   0.020083   0.331939   x
            x  Ca           3         0.020083   0.642890   0.331939   x
            x  Ca           4         0.333342   0.021442   0.649337   x
            x  Ca           5         0.021442   0.333342   0.649337   x
            x  Ca           6         0.645287   0.333735   0.648072   x
            x  Ca           7         0.333735   0.645287   0.648072   x
            xxxxxxxxxxxxxxxxxxxxxxxxxxxxxxxxxxxxxxxxxxxxxxxxxxxxxxxxxxxx


------------------------------------------------------------------------ <-- SCF
SCF loop      Energy           Fermi           Energy gain       Timer   <-- SCF
                               energy          per atom          (sec)   <-- SCF
------------------------------------------------------------------------ <-- SCF
Initial  -1.93550870E+004  0.00000000E+000                     44071.31  <-- SCF
      1  -1.93586935E+004  5.18456525E+000   1.33571710E-001   44130.42  <-- SCF
      2  -1.93587519E+004  5.18375420E+000   2.16463587E-003   44210.78  <-- SCF
      3  -1.93585133E+004  4.07602748E+000  -8.83552194E-003   44274.65  <-- SCF
      4  -1.93572289E+004  4.93764471E+000  -4.75730309E-002   44338.99  <-- SCF
      5  -1.93572411E+004  4.83132982E+000   4.52106449E-004   44406.18  <-- SCF
      6  -1.93571011E+004  4.76387251E+000  -5.18293888E-003   44472.42  <-- SCF
      7  -1.93570720E+004  4.71938280E+000  -1.07884170E-003   44538.42  <-- SCF
      8  -1.93570617E+004  4.74646837E+000  -3.83479514E-004   44605.89  <-- SCF
      9  -1.93570569E+004  4.73592997E+000  -1.77232268E-004   44671.91  <-- SCF
     10  -1.93570547E+004  4.73094357E+000  -7.97198302E-005   44739.08  <-- SCF
     11  -1.93570549E+004  4.72793685E+000   4.68982839E-006   44805.77  <-- SCF
     12  -1.93570543E+004  4.72579485E+000  -2.20810717E-005   44864.78  <-- SCF
     13  -1.93570542E+004  4.72604644E+000  -1.96456598E-006   44923.38  <-- SCF
     14  -1.93570542E+004  4.72573755E+000  -5.89978107E-007   44978.33  <-- SCF
     15  -1.93570542E+004  4.72566382E+000  -4.03609729E-008   45023.43  <-- SCF
     16  -1.93570542E+004  4.72561828E+000   5.13304506E-009   45066.36  <-- SCF
------------------------------------------------------------------------ <-- SCF
 
Final energy, E             =  -19356.84129667     eV
Final free energy (E-TS)    =  -19357.05418393     eV
(energies not corrected for finite basis set)
 
NB est. 0K energy (E-0.5TS)      =  -19356.94774030     eV
 

 *********************************** Forces ***********************************
 *                                                                            *
 *                        Cartesian components (eV/A)                         *
 * -------------------------------------------------------------------------- *
 *                   x                    y                    z              *
 *                                                                            *
 * O         1      2.19388              2.19388              1.08449         *
 * O         2     -2.20150              2.27705              1.02587         *
 * O         3      0.00132              0.00132              1.55152         *
 * O         4      2.27705             -2.20150              1.02587         *
 * O         5     -1.91085             -1.91085              2.04138         *
 * O         6     -0.01798              1.80102             -0.35992         *
 * O         7      1.80102             -0.01798             -0.35992         *
 * O         8     -1.68820              0.45787             -0.40001         *
 * O         9      0.45787             -1.68820             -0.40001         *
 * O        10      1.54118              1.54118             -1.81435         *
 * O        11     -1.54010              1.62000             -1.72473         *
 * O        12      0.00875              0.00875             -1.96851         *
 * O        13      1.62000             -1.54010             -1.72473         *
 * O        14     -1.23586             -1.23586             -2.71849         *
 * Mg        1     -0.00355              2.45145              2.44100         *
 * Mg        2      2.45145             -0.00355              2.44100         *
 * Mg        3     -2.42978              0.06583              2.58073         *
 * Mg        4      0.06583             -2.42978              2.58073         *
 * Mg        5      0.09438              0.09438             -0.42080         *
 * Mg        6     -2.69657             -2.69657             -0.14119         *
 * Ca        1      1.32911              1.32911             -0.25836         *
 * Ca        2     -1.41967              1.18046             -0.25638         *
 * Ca        3      1.18046             -1.41967             -0.25638         *
 * Ca        4     -0.00747              1.22583             -0.89516         *
 * Ca        5      1.22583             -0.00747             -0.89516         *
 * Ca        6     -1.19869              0.10212             -1.08924         *
 * Ca        7      0.10212             -1.19869             -1.08924         *
 *                                                                            *
 ******************************************************************************

 ***************** Stress Tensor *****************
 *                                               *
 *          Cartesian components (GPa)           *
 * --------------------------------------------- *
 *             x             y             z     *
 *                                               *
 *  x      5.802700      0.468916     -0.107406  *
 *  y      0.468916      5.802700     -0.107406  *
 *  z     -0.107406     -0.107406      5.248963  *
 *                                               *
 *  Pressure:   -5.6181                          *
 *                                               *
 *************************************************

 *********** Constrained Stress Tensor ***********
 *                                               *
 *          Cartesian components (GPa)           *
 * --------------------------------------------- *
 *             x             y             z     *
 *                                               *
 *  x      5.654288     -0.000000     -0.000000  *
 *  y     -0.000000      5.654288     -0.000000  *
 *  z     -0.000000     -0.000000      5.654288  *
 *                                               *
 *  Pressure:   -5.6543                          *
 *                                               *
 *************************************************
  
 +------------+-------------+-------------+-----------------+ <-- min BFGS
 |    Step    |   lambda    |   F.delta   |    enthalpy     | <-- min BFGS
 +------------+-------------+-------------+-----------------+ <-- min BFGS
 |  previous  |    0.000000 |    0.027279 |   -19356.330996 | <-- min BFGS
 | trial step |    1.000000 |    0.025751 |   -19357.070522 | <-- min BFGS
 +------------+-------------+-------------+-----------------+ <-- min BFGS
  
 BFGS: finished iteration    19 with enthalpy= -1.93570705E+004 eV
  
 +-----------+-----------------+-----------------+------------+-----+ <-- BFGS
 | Parameter |      value      |    tolerance    |    units   | OK? | <-- BFGS
 +-----------+-----------------+-----------------+------------+-----+ <-- BFGS
 |  dE/ion   |   2.738985E-002 |   2.000000E-005 |         eV | No  | <-- BFGS
 |  |F|max   |   3.816141E+000 |   5.000000E-002 |       eV/A | No  | <-- BFGS
 |  |dR|max  |   1.164167E-002 |   1.000000E-003 |          A | No  | <-- BFGS
 |   Smax    |   5.618188E+000 |   1.000000E-001 |        GPa | No  | <-- BFGS
 +-----------+-----------------+-----------------+------------+-----+ <-- BFGS
  

================================================================================
 Starting BFGS iteration         20 ...
================================================================================

Writing model to test_3.check
  
 +------------+-------------+-------------+-----------------+ <-- min BFGS
 |    Step    |   lambda    |   F.delta   |    enthalpy     | <-- min BFGS
 +------------+-------------+-------------+-----------------+ <-- min BFGS
 |  previous  |    0.000000 |    0.024403 |   -19357.070522 | <-- min BFGS
 +------------+-------------+-------------+-----------------+ <-- min BFGS
  

--------------------------------------------------------------------------------
 BFGS: starting iteration        20 with trial guess (lambda=  1.000000)
--------------------------------------------------------------------------------

                           -------------------------------
                                      Unit Cell
                           -------------------------------
        Real Lattice(A)              Reciprocal Lattice(1/A)
   7.1477722   0.0000000   0.0000000        0.8790411  -0.0000000  -0.0000000
   0.0000000   7.1477722   0.0000000       -0.0000000   0.8790411  -0.0000000
   0.0000000   0.0000000   7.1477722       -0.0000000  -0.0000000   0.8790411

                       Lattice parameters(A)       Cell Angles
                    a =    7.147772          alpha =   90.000000
                    b =    7.147772          beta  =   90.000000
                    c =    7.147772          gamma =   90.000000

                Current cell volume =  365.184308 A**3

                           -------------------------------
                                     Cell Contents
                           -------------------------------

            xxxxxxxxxxxxxxxxxxxxxxxxxxxxxxxxxxxxxxxxxxxxxxxxxxxxxxxxxxxx
            x  Element    Atom        Fractional coordinates of atoms  x
            x            Number           u          v          w      x
            x----------------------------------------------------------x
            x  O            1         0.015411   0.015411   0.011794   x
            x  O            2         0.651170   0.016420   0.010568   x
            x  O            3         0.333260   0.333260   0.012088   x
            x  O            4         0.016420   0.651170   0.010568   x
            x  O            5         0.652528   0.652528   0.014570   x
            x  O            6         0.332626   0.014246   0.334208   x
            x  O            7         0.014246   0.332626   0.334208   x
            x  O            8         0.653273   0.333759   0.333974   x
            x  O            9         0.333759   0.653273   0.333974   x
            x  O           10         0.013683   0.013683   0.649920   x
            x  O           11         0.652922   0.014697   0.651234   x
            x  O           12         0.333269   0.333269   0.651425   x
            x  O           13         0.014697   0.652922   0.651234   x
            x  O           14         0.654797   0.654797   0.648055   x
            x  Mg           1         0.333319   0.020362   0.024736   x
            x  Mg           2         0.020362   0.333319   0.024736   x
            x  Mg           3         0.646384   0.333656   0.025659   x
            x  Mg           4         0.333656   0.646384   0.025659   x
            x  Mg           5         0.334111   0.334111   0.330293   x
            x  Mg           6         0.640315   0.640315   0.332453   x
            x  Ca           1         0.023061   0.023061   0.331797   x
            x  Ca           2         0.642304   0.020569   0.331834   x
            x  Ca           3         0.020569   0.642304   0.331834   x
            x  Ca           4         0.333339   0.021948   0.648968   x
            x  Ca           5         0.021948   0.333339   0.648968   x
            x  Ca           6         0.644792   0.333777   0.647622   x
            x  Ca           7         0.333777   0.644792   0.647622   x
            xxxxxxxxxxxxxxxxxxxxxxxxxxxxxxxxxxxxxxxxxxxxxxxxxxxxxxxxxxxx


------------------------------------------------------------------------ <-- SCF
SCF loop      Energy           Fermi           Energy gain       Timer   <-- SCF
                               energy          per atom          (sec)   <-- SCF
------------------------------------------------------------------------ <-- SCF
Initial  -1.93559398E+004  0.00000000E+000                     45232.38  <-- SCF
      1  -1.93591381E+004  5.23579056E+000   1.18459038E-001   45291.79  <-- SCF
      2  -1.93591886E+004  5.23509309E+000   1.86688364E-003   45371.85  <-- SCF
      3  -1.93588744E+004  4.23002816E+000  -1.16334583E-002   45436.21  <-- SCF
