 +-------------------------------------------------+
 |                                                 |
 |      CCC   AA    SSS  TTTTT  EEEEE  PPPP        |
 |     C     A  A  S       T    E      P   P       |
 |     C     AAAA   SS     T    EEE    PPPP        |
 |     C     A  A     S    T    E      P           |
 |      CCC  A  A  SSS     T    EEEEE  P           |
 |                                                 |
 +-------------------------------------------------+
 |                                                 |
 | Welcome to Academic Release CASTEP version 9.0  |
 | Ab Initio Total Energy Program                  |
 |                                                 |
 | Authors:                                        |
 | M. Segall, M. Probert, C. Pickard, P. Hasnip,   |
 | S. Clark, K. Refson, J. R. Yates, M. Payne      |
 |                                                 |
 | Contributors:                                   |
 | P. Lindan, P. Haynes, J. White, V. Milman,      |
 | N. Govind, M. Gibson, P. Tulip, V. Cocula,      |
 | B. Montanari, D. Quigley, M. Glover,            |
 | L. Bernasconi, A. Perlov, M. Plummer,           |
 | E. McNellis, J. Meyer, J. Gale, D. Jochym       |
 | J. Aarons, B. Walker, R. Gillen, D. Jones       |
 | T. Green, I. J. Bush, C. J. Armstrong,          |
 | E. J. Higgins, M. D. Hodgson                    |
 |                                                 |
 | Copyright (c) 2000 - 2015                       |
 |                                                 |
 |     Distributed under the terms of an           |
 |     Agreement between the United Kingdom        |
 |     Car-Parrinello (UKCP) Consortium,           |
 |     Daresbury Laboratory and Accelrys, Inc.     |
 |                                                 |
 | Please cite                                     |
 |                                                 |
 |     "First principles methods using CASTEP"     |
 |                                                 |
 |         Zeitschrift fuer Kristallographie       |
 |           220(5-6) pp. 567-570 (2005)           |
 |                                                 |
 | S. J. Clark, M. D. Segall, C. J. Pickard,       |
 | P. J. Hasnip, M. J. Probert, K. Refson,         |
 | M. C. Payne                                     |
 |                                                 |
 |       in all publications arising from          |
 |              your use of CASTEP                 |
 |                                                 |
 +-------------------------------------------------+
 
 
 Compiled for linux_x86_64_ifort12 on Fri, 09 Oct 2015 16:14:59 +0100
 from code version 01cdeb6dcbec+  Thu, 01 Oct 2015 17:06:55 +0100
 Compiler: Intel Fortran 12.1.5.339; Optimisation: fast
 MATHLIBS: Intel MKL(11.0.5) (LAPACK version 3.4.1)
 FFT Lib : default
 Fundamental constants values: CODATA 2010
 
 Run started: Thu, 28 Apr 2016 19:38:08 +0100
 
 Atomic calculation performed for Mg: 1s2 2s2 2p6 3s2
 
 Converged in 47 iterations to an ae energy of -5427.407 eV
 
   ============================================================                
   | Pseudopotential Report - Date of generation 28-04-2016   |                
   ------------------------------------------------------------                
   | Element: Mg Ionic charge: 10.00 Level of theory: LDA     |                
   | Atomic Solver: Koelling-Harmon                           |                
   |                                                          |                
   |               Reference Electronic Structure             |                
   |         Orbital         Occupation         Energy        |                
   |            2s              2.000           -2.914        |                
   |            2p              6.000           -1.717        |                
   |            3s              2.000           -0.176        |                
   |                                                          |                
   |                 Pseudopotential Definition               |                
   |        Beta     l      e      Rc     scheme   norm       |                
   |          1      0   -2.914   1.804     qc      0         |                
   |          2      0   -0.176   1.804     qc      0         |                
   |          3      0    0.250   1.804     qc      0         |                
   |          4      1   -1.717   1.804     qc      0         |                
   |          5      1    0.250   1.804     qc      0         |                
   |          6      2    0.000   1.804     qc      0         |                
   |          7      2    0.250   1.804     qc      0         |                
   |         loc     3    0.000   1.804     pn      0         |                
   |                                                          |                
   | Augmentation charge Rinner = 1.261                       |                
   | Partial core correction Rc = 1.261                       |                
   ------------------------------------------------------------                
   | "3|1.8|7|8|9|20U:30:21:32"                               |                
   ------------------------------------------------------------                
   |      Author: Chris J. Pickard, Cambridge University      |                
   ============================================================                
 
 Pseudo atomic calculation performed for Mg 2s2 2p6 3s2
 
 Converged in 19 iterations to a total energy of -1684.3182 eV
 
 Calculation not parallelised.

 ************************************ Title ************************************
 MgO

 ***************************** General Parameters ******************************
  
 output verbosity                               : normal  (1)
 write checkpoint data to                       : ../8.check
 type of calculation                            : single point energy
 stress calculation                             : on
 density difference calculation                 : off
 electron localisation func (ELF) calculation   : off
 Hirshfeld analysis                             : off
 unlimited duration calculation
 timing information                             : on
 memory usage estimate                          : on
 write final potential to formatted file        : off
 write final density to formatted file          : off
 write BibTeX reference list                    : on
 write OTFG pseudopotential files               : on
 checkpoint writing                             : both castep_bin and check files
  
 output         length unit                     : A
 output           mass unit                     : amu
 output           time unit                     : ps
 output         charge unit                     : e
 output           spin unit                     : hbar/2
 output         energy unit                     : eV
 output          force unit                     : eV/A
 output       velocity unit                     : A/ps
 output       pressure unit                     : GPa
 output     inv_length unit                     : 1/A
 output      frequency unit                     : cm-1
 output force constant unit                     : eV/A**2
 output         volume unit                     : A**3
 output   IR intensity unit                     : (D/A)**2/amu
 output         dipole unit                     : D
 output         efield unit                     : eV/A/e
 output        entropy unit                     : J/mol/K
  
 wavefunctions paging                           : none
 random number generator seed                   : randomised (193809273)
 data distribution                              : optimal for this architecture
 optimization strategy                          : maximize speed(+++)

 *********************** Exchange-Correlation Parameters ***********************
  
 using functional                               : Local Density Approximation
 relativistic treatment                         : Koelling-Harmon
 DFT+D: Semi-empirical dispersion correction    : off

 ************************* Pseudopotential Parameters **************************
  
 pseudopotential representation                 : reciprocal space
 <beta|phi> representation                      : reciprocal space
 spin-orbit coupling                            : off

 **************************** Basis Set Parameters *****************************
  
 plane wave basis set cut-off                   :   280.0000   eV
 size of standard grid                          :     2.0000
 size of   fine   gmax                          :    17.1454   1/A
 finite basis set correction                    : automatic
 number of sample energies                      :          3
           sample  spacing                      :     5.0000   eV

 **************************** Electronic Parameters ****************************
  
 number of  electrons                           :  80.00    
 net charge of system                           :  0.000    
 treating system as non-spin-polarized
 number of bands                                :         48

 ********************* Electronic Minimization Parameters **********************
  
 Method: Treating system as metallic with density mixing treatment of electrons,
         and number of  SD  steps               :          1
         and number of  CG  steps               :          4
  
 total energy / atom convergence tol.           : 0.1000E-06   eV
 eigen-energy convergence tolerance             : 0.2000E-07   eV
 max force / atom convergence tol.              : ignored
 convergence tolerance window                   :          3   cycles
 max. number of SCF cycles                      :         60
 number of fixed-spin iterations                :         10
 smearing scheme                                : Gaussian
 smearing width                                 : 0.2000       eV
 Fermi energy convergence tolerance             : 0.2721E-13   eV
 periodic dipole correction                     : NONE

 ************************** Density Mixing Parameters **************************
  
 density-mixing scheme                          : Pulay
 max. length of mixing history                  :         30
 charge density mixing amplitude                : 0.8000    
 cut-off energy for mixing                      :  280.0       eV

 *********************** Population Analysis Parameters ************************
  
 Population analysis with cutoff                :  3.000       A

 *******************************************************************************
  
 
                           -------------------------------
                                      Unit Cell
                           -------------------------------
        Real Lattice(A)                      Reciprocal Lattice(1/A)
   4.2000000   0.0000000   0.0000000        1.4959965   0.0000000   0.0000000
   0.0000000   4.2000000   0.0000000        0.0000000   1.4959965   0.0000000
   0.0000000   0.0000000   4.2000000        0.0000000   0.0000000   1.4959965
 
                       Lattice parameters(A)       Cell Angles
                    a =    4.200000          alpha =   90.000000
                    b =    4.200000          beta  =   90.000000
                    c =    4.200000          gamma =   90.000000
 
                       Current cell volume =   74.088000       A**3
 
                           -------------------------------
                                     Cell Contents
                           -------------------------------
                         Total number of ions in cell =    8
                      Total number of species in cell =    1
                        Max number of any one species =    8
 
            xxxxxxxxxxxxxxxxxxxxxxxxxxxxxxxxxxxxxxxxxxxxxxxxxxxxxxxxxxxx
            x  Element    Atom        Fractional coordinates of atoms  x
            x            Number           u          v          w      x
            x----------------------------------------------------------x
            x  Mg           1         0.000000   0.000000   0.000000   x 
            x  Mg           2         0.500000   0.000000   0.000000   x 
            x  Mg           3         0.000000   0.500000   0.000000   x 
            x  Mg           4         0.500000   0.500000   0.000000   x 
            x  Mg           5         0.000000   0.000000   0.500000   x 
            x  Mg           6         0.500000   0.000000   0.500000   x 
            x  Mg           7         0.000000   0.500000   0.500000   x 
            x  Mg           8         0.500000   0.500000   0.500000   x 
            xxxxxxxxxxxxxxxxxxxxxxxxxxxxxxxxxxxxxxxxxxxxxxxxxxxxxxxxxxxx
 
 
                         No user defined ionic velocities
 
                           -------------------------------
                                   Details of Species
                           -------------------------------
 
                               Mass of species in AMU
                                    Mg   24.3050000
 
                          Electric Quadrupole Moment (Barn)
                                    Mg    0.1994000 Isotope 25
 
                          Files used for pseudopotentials:
                                    Mg 3|1.8|7|8|9|20U:30:21:32
 
                           -------------------------------
                              k-Points For BZ Sampling
                           -------------------------------
                       MP grid size for SCF calculation is  3  3  3
                            with an offset of   0.000  0.000  0.000
                       Number of kpoints used =             4
 
                           -------------------------------
                               Symmetry and Constraints
                           -------------------------------
 
                      Cell is a supercell containing 8 primitive cells
                      Maximum deviation from symmetry = 0.940008E-15     ANG
 
                      Number of symmetry operations   =         384
                      Number of ionic constraints     =           3
                      Point group of crystal =    32: Oh, m-3m, 4/m -3 2/m
                      Space group of crystal =   221: Pm-3m, -P 4 2 3
 
             Set iprint > 1 for details on symmetry rotations/translations
 
                         Centre of mass is constrained
             Set iprint > 1 for details of linear ionic constraints
 
                         Number of cell constraints= 5
                         Cell constraints are:  1 1 1 0 0 0
 
                         External pressure/stress (GPa)
                          0.00000   0.00000   0.00000
                                    0.00000   0.00000
                                              0.00000
  
+---------------- MEMORY AND SCRATCH DISK ESTIMATES PER PROCESS --------------+
|                                                     Memory          Disk    |
| Baseline code, static data and system overhead      173.0 MB         0.0 MB |
| BLAS internal memory storage                          0.0 MB         0.0 MB |
| Model and support data                               47.1 MB         0.0 MB |
| Electronic energy minimisation requirements           8.4 MB         0.0 MB |
| Force calculation requirements                        1.8 MB         0.0 MB |
| Stress calculation requirements                       2.1 MB         0.0 MB |
|                                               ----------------------------- |
| Approx. total storage required per process          228.4 MB         0.0 MB |
|                                                                             |
| Requirements will fluctuate during execution and may exceed these estimates |
+-----------------------------------------------------------------------------+
Calculating finite basis set correction with  3 cut-off energies.
Calculating total energy with cut-off of  270.000eV.
------------------------------------------------------------------------ <-- SCF
SCF loop      Energy           Fermi           Energy gain       Timer   <-- SCF
                               energy          per atom          (sec)   <-- SCF
------------------------------------------------------------------------ <-- SCF
Initial  -1.08876946E+004  0.00000000E+000                         5.12  <-- SCF
      1  -1.33062773E+004  1.18510537E+001   3.02322841E+002       5.59  <-- SCF
      2  -1.34590022E+004  1.05966031E+001   1.90906063E+001       5.92  <-- SCF
      3  -1.34608233E+004  1.07907615E+001   2.27638712E-001       6.28  <-- SCF
      4  -1.34602525E+004  1.08843747E+001  -7.13445257E-002       6.73  <-- SCF
      5  -1.34602095E+004  1.09173403E+001  -5.37967308E-003       7.21  <-- SCF
      6  -1.34602093E+004  1.09197407E+001  -2.04774948E-005       7.69  <-- SCF
      7  -1.34602093E+004  1.09196402E+001   1.71052149E-007       8.03  <-- SCF
      8  -1.34602093E+004  1.09196734E+001  -1.27666094E-008       8.33  <-- SCF
      9  -1.34602093E+004  1.09196698E+001   2.78073842E-009       8.63  <-- SCF
------------------------------------------------------------------------ <-- SCF
 
Final energy, E             =  -13460.19785140     eV
Final free energy (E-TS)    =  -13460.20931538     eV
(energies not corrected for finite basis set)
 
NB est. 0K energy (E-0.5TS)      =  -13460.20358339     eV
 
Calculating total energy with cut-off of  275.000eV.
------------------------------------------------------------------------ <-- SCF
SCF loop      Energy           Fermi           Energy gain       Timer   <-- SCF
                               energy          per atom          (sec)   <-- SCF
------------------------------------------------------------------------ <-- SCF
Initial  -1.34601979E+004  0.00000000E+000                         8.77  <-- SCF
      1  -1.34604848E+004  1.09196728E+001   3.58704819E-002       9.14  <-- SCF
      2  -1.34604853E+004  1.09196728E+001   6.23595619E-005       9.56  <-- SCF
      3  -1.34604850E+004  1.09185718E+001  -4.30341186E-005      10.02  <-- SCF
      4  -1.34604850E+004  1.09188630E+001   8.20959943E-007      10.47  <-- SCF
      5  -1.34604850E+004  1.09187730E+001  -1.57187900E-007      10.78  <-- SCF
      6  -1.34604850E+004  1.09187668E+001   1.49226388E-009      11.09  <-- SCF
      7  -1.34604850E+004  1.09187659E+001   3.82830070E-010      11.41  <-- SCF
------------------------------------------------------------------------ <-- SCF
 
Final energy, E             =  -13460.47351255     eV
Final free energy (E-TS)    =  -13460.48497518     eV
(energies not corrected for finite basis set)
 
NB est. 0K energy (E-0.5TS)      =  -13460.47924387     eV
 
Calculating total energy with cut-off of  280.000eV.
------------------------------------------------------------------------ <-- SCF
SCF loop      Energy           Fermi           Energy gain       Timer   <-- SCF
                               energy          per atom          (sec)   <-- SCF
------------------------------------------------------------------------ <-- SCF
Initial  -1.34604735E+004  0.00000000E+000                        11.56  <-- SCF
      1  -1.34606459E+004  1.09187671E+001   2.15501395E-002      11.88  <-- SCF
      2  -1.34606462E+004  1.09187671E+001   3.88226497E-005      12.23  <-- SCF
      3  -1.34606461E+004  1.09180860E+001  -1.70813835E-005      12.65  <-- SCF
      4  -1.34606461E+004  1.09182770E+001   3.33436870E-007      13.01  <-- SCF
      5  -1.34606461E+004  1.09182156E+001  -6.45343223E-008      13.32  <-- SCF
      6  -1.34606461E+004  1.09182128E+001   8.33912167E-010      13.60  <-- SCF
------------------------------------------------------------------------ <-- SCF
 
Final energy, E             =  -13460.63462782     eV
Final free energy (E-TS)    =  -13460.64608976     eV
(energies not corrected for finite basis set)
 
NB est. 0K energy (E-0.5TS)      =  -13460.64035879     eV
 
 For future reference: finite basis dEtot/dlog(Ecut) =     -10.932591eV
 Total energy corrected for finite basis set =  -13460.658434 eV
 
 ***************** Symmetrised Forces *****************
 *                                                    *
 *            Cartesian components (eV/A)             *
 * -------------------------------------------------- *
 *                   x            y            z      *
 *                                                    *
 * Mg        1      0.00000      0.00000      0.00000 *
 * Mg        2      0.00000      0.00000      0.00000 *
 * Mg        3      0.00000      0.00000      0.00000 *
 * Mg        4      0.00000      0.00000      0.00000 *
 * Mg        5      0.00000      0.00000      0.00000 *
 * Mg        6      0.00000      0.00000      0.00000 *
 * Mg        7      0.00000      0.00000      0.00000 *
 * Mg        8      0.00000      0.00000      0.00000 *
 *                                                    *
 ******************************************************
 
 *********** Symmetrised Stress Tensor ***********
 *                                               *
 *          Cartesian components (GPa)           *
 * --------------------------------------------- *
 *             x             y             z     *
 *                                               *
 *  x   -176.335400      0.000000      0.000000  *
 *  y      0.000000   -176.335400      0.000000  *
 *  z      0.000000      0.000000   -176.335400  *
 *                                               *
 *  Pressure:  176.3354                          *
 *                                               *
 *************************************************
 
 Pseudo atomic calculation performed for Mg 2s2 2p6 3s2
 
 Converged in 19 iterations to a total energy of -1684.3182 eV
 
Charge spilling parameter for spin component 1 = 0.80%
 
     Atomic Populations (Mulliken)
     -----------------------------
Species   Ion     s      p      d      f     Total  Charge (e)
==============================================================
  Mg       1     2.05   7.94   0.00   0.00  10.00     0.00
  Mg       2     2.05   7.94   0.00   0.00  10.00     0.00
  Mg       3     2.05   7.94   0.00   0.00  10.00     0.00
  Mg       4     2.05   7.94   0.00   0.00  10.00     0.00
  Mg       5     2.05   7.94   0.00   0.00  10.00     0.00
  Mg       6     2.05   7.94   0.00   0.00  10.00     0.00
  Mg       7     2.05   7.94   0.00   0.00  10.00     0.00
  Mg       8     2.05   7.94   0.00   0.00  10.00     0.00
==============================================================
 
            Bond              Population      Length (A)
============================================================
         Mg 7 -- Mg 8             -4.34        2.10000
         Mg 6 -- Mg 8             -4.34        2.10000
         Mg 5 -- Mg 7             -4.34        2.10000
         Mg 5 -- Mg 6             -4.34        2.10000
         Mg 4 -- Mg 8             -4.34        2.10000
         Mg 3 -- Mg 7             -4.34        2.10000
         Mg 3 -- Mg 4             -4.34        2.10000
         Mg 2 -- Mg 6             -4.34        2.10000
         Mg 2 -- Mg 4             -4.34        2.10000
         Mg 1 -- Mg 5             -4.34        2.10000
         Mg 1 -- Mg 3             -4.34        2.10000
         Mg 1 -- Mg 2             -4.34        2.10000
         Mg 6 -- Mg 7              2.72        2.96985
         Mg 5 -- Mg 8              2.72        2.96985
         Mg 4 -- Mg 7              2.72        2.96985
         Mg 4 -- Mg 6              2.72        2.96985
         Mg 3 -- Mg 8              2.72        2.96985
         Mg 3 -- Mg 5              2.72        2.96985
         Mg 2 -- Mg 8              2.72        2.96985
         Mg 2 -- Mg 5              2.72        2.96985
         Mg 2 -- Mg 3              2.72        2.96985
         Mg 1 -- Mg 7              2.72        2.96985
         Mg 1 -- Mg 6              2.72        2.96985
         Mg 1 -- Mg 4              2.72        2.96985
============================================================
 

Writing analysis data to ../8.castep_bin

Writing model to ../8.check
 
 A BibTeX formatted list of references used in this run has been written to 
 ../8.bib
 
Initialisation time =      4.39 s
Calculation time    =     11.28 s
Finalisation time   =      0.02 s
Total time          =     15.69 s
Peak Memory Use     = 453292 kB
