 +-------------------------------------------------+
 |                                                 |
 |      CCC   AA    SSS  TTTTT  EEEEE  PPPP        |
 |     C     A  A  S       T    E      P   P       |
 |     C     AAAA   SS     T    EEE    PPPP        |
 |     C     A  A     S    T    E      P           |
 |      CCC  A  A  SSS     T    EEEEE  P           |
 |                                                 |
 +-------------------------------------------------+
 |                                                 |
 | Welcome to Academic Release CASTEP version 9.0  |
 | Ab Initio Total Energy Program                  |
 |                                                 |
 | Authors:                                        |
 | M. Segall, M. Probert, C. Pickard, P. Hasnip,   |
 | S. Clark, K. Refson, J. R. Yates, M. Payne      |
 |                                                 |
 | Contributors:                                   |
 | P. Lindan, P. Haynes, J. White, V. Milman,      |
 | N. Govind, M. Gibson, P. Tulip, V. Cocula,      |
 | B. Montanari, D. Quigley, M. Glover,            |
 | L. Bernasconi, A. Perlov, M. Plummer,           |
 | E. McNellis, J. Meyer, J. Gale, D. Jochym       |
 | J. Aarons, B. Walker, R. Gillen, D. Jones       |
 | T. Green, I. J. Bush, C. J. Armstrong,          |
 | E. J. Higgins, M. D. Hodgson                    |
 |                                                 |
 | Copyright (c) 2000 - 2015                       |
 |                                                 |
 |     Distributed under the terms of an           |
 |     Agreement between the United Kingdom        |
 |     Car-Parrinello (UKCP) Consortium,           |
 |     Daresbury Laboratory and Accelrys, Inc.     |
 |                                                 |
 | Please cite                                     |
 |                                                 |
 |     "First principles methods using CASTEP"     |
 |                                                 |
 |         Zeitschrift fuer Kristallographie       |
 |           220(5-6) pp. 567-570 (2005)           |
 |                                                 |
 | S. J. Clark, M. D. Segall, C. J. Pickard,       |
 | P. J. Hasnip, M. J. Probert, K. Refson,         |
 | M. C. Payne                                     |
 |                                                 |
 |       in all publications arising from          |
 |              your use of CASTEP                 |
 |                                                 |
 +-------------------------------------------------+
 
 
 Compiled for linux_x86_64_ifort12 on Fri, 09 Oct 2015 16:14:59 +0100
 from code version 01cdeb6dcbec+  Thu, 01 Oct 2015 17:06:55 +0100
 Compiler: Intel Fortran 12.1.5.339; Optimisation: fast
 MATHLIBS: Intel MKL(11.0.5) (LAPACK version 3.4.1)
 FFT Lib : default
 Fundamental constants values: CODATA 2010
 
 Run started: Wed, 27 Apr 2016 12:41:42 +0100
 
 Atomic calculation performed for Mg: 1s2 2s2 2p6 3s2
 
 Converged in 47 iterations to an ae energy of -5427.407 eV
 
   ============================================================                
   | Pseudopotential Report - Date of generation 27-04-2016   |                
   ------------------------------------------------------------                
   | Element: Mg Ionic charge: 10.00 Level of theory: LDA     |                
   | Atomic Solver: Koelling-Harmon                           |                
   |                                                          |                
   |               Reference Electronic Structure             |                
   |         Orbital         Occupation         Energy        |                
   |            2s              2.000           -2.914        |                
   |            2p              6.000           -1.717        |                
   |            3s              2.000           -0.176        |                
   |                                                          |                
   |                 Pseudopotential Definition               |                
   |        Beta     l      e      Rc     scheme   norm       |                
   |          1      0   -2.914   1.804     qc      0         |                
   |          2      0   -0.176   1.804     qc      0         |                
   |          3      0    0.250   1.804     qc      0         |                
   |          4      1   -1.717   1.804     qc      0         |                
   |          5      1    0.250   1.804     qc      0         |                
   |          6      2    0.000   1.804     qc      0         |                
   |          7      2    0.250   1.804     qc      0         |                
   |         loc     3    0.000   1.804     pn      0         |                
   |                                                          |                
   | Augmentation charge Rinner = 1.261                       |                
   | Partial core correction Rc = 1.261                       |                
   ------------------------------------------------------------                
   | "3|1.8|7|8|9|20U:30:21:32"                               |                
   ------------------------------------------------------------                
   |      Author: Chris J. Pickard, Cambridge University      |                
   ============================================================                
 
 Atomic calculation performed for Ca: 1s2 2s2 2p6 3s2 3p6 4s2
 
 Converged in 44 iterations to an ae energy of -18468.059 eV
 
   ============================================================                
   | Pseudopotential Report - Date of generation 27-04-2016   |                
   ------------------------------------------------------------                
   | Element: Ca Ionic charge: 10.00 Level of theory: LDA     |                
   | Atomic Solver: Koelling-Harmon                           |                
   |                                                          |                
   |               Reference Electronic Structure             |                
   |         Orbital         Occupation         Energy        |                
   |            3s              2.000           -1.721        |                
   |            3p              6.000           -1.028        |                
   |            4s              2.000           -0.142        |                
   |                                                          |                
   |                 Pseudopotential Definition               |                
   |        Beta     l      e      Rc     scheme   norm       |                
   |          1      0   -1.721   2.005     qc      0         |                
   |          2      0   -0.142   2.005     qc      0         |                
   |          3      0    0.250   2.005     qc      0         |                
   |          4      1   -1.028   2.005     qc      0         |                
   |          5      1    0.250   2.005     qc      0         |                
   |          6      2    0.000   2.005     qc      0         |                
   |          7      2    0.250   2.005     qc      0         |                
   |         loc     3    0.000   2.005     pn      0         |                
   |                                                          |                
   | Augmentation charge Rinner = 1.401                       |                
   | Partial core correction Rc = 1.401                       |                
   ------------------------------------------------------------                
   | "3|2.0|7|8|9|30U:40:31:32"                               |                
   ------------------------------------------------------------                
   |      Author: Chris J. Pickard, Cambridge University      |                
   ============================================================                
 
 Pseudo atomic calculation performed for Mg 2s2 2p6 3s2
 
 Converged in 19 iterations to a total energy of -1684.6096 eV
 
 
 Pseudo atomic calculation performed for Ca 3s2 3p6 4s2
 
 Converged in 24 iterations to a total energy of -1001.5939 eV
 
 Calculation not parallelised.

 ************************************ Title ************************************
 MgO

 ***************************** General Parameters ******************************
  
 output verbosity                               : normal  (1)
 write checkpoint data to                       : ../cutoff.check
 type of calculation                            : single point energy
 stress calculation                             : on
 density difference calculation                 : off
 electron localisation func (ELF) calculation   : off
 Hirshfeld analysis                             : off
 unlimited duration calculation
 timing information                             : on
 memory usage estimate                          : on
 write final potential to formatted file        : off
 write final density to formatted file          : off
 write BibTeX reference list                    : on
 write OTFG pseudopotential files               : on
 checkpoint writing                             : both castep_bin and check files
  
 output         length unit                     : A
 output           mass unit                     : amu
 output           time unit                     : ps
 output         charge unit                     : e
 output           spin unit                     : hbar/2
 output         energy unit                     : eV
 output          force unit                     : eV/A
 output       velocity unit                     : A/ps
 output       pressure unit                     : GPa
 output     inv_length unit                     : 1/A
 output      frequency unit                     : cm-1
 output force constant unit                     : eV/A**2
 output         volume unit                     : A**3
 output   IR intensity unit                     : (D/A)**2/amu
 output         dipole unit                     : D
 output         efield unit                     : eV/A/e
 output        entropy unit                     : J/mol/K
  
 wavefunctions paging                           : none
 random number generator seed                   : randomised (124142697)
 data distribution                              : optimal for this architecture
 optimization strategy                          : maximize speed(+++)

 *********************** Exchange-Correlation Parameters ***********************
  
 using functional                               : Local Density Approximation
 relativistic treatment                         : Koelling-Harmon
 DFT+D: Semi-empirical dispersion correction    : off

 ************************* Pseudopotential Parameters **************************
  
 pseudopotential representation                 : reciprocal space
 <beta|phi> representation                      : reciprocal space
 spin-orbit coupling                            : off

 **************************** Basis Set Parameters *****************************
  
 plane wave basis set cut-off                   :   400.0000   eV
 size of standard grid                          :     2.0000
 size of   fine   gmax                          :    20.4927   1/A
 finite basis set correction                    : automatic
 number of sample energies                      :          3
           sample  spacing                      :     5.0000   eV

 **************************** Electronic Parameters ****************************
  
 number of  electrons                           :  80.00    
 net charge of system                           :  0.000    
 treating system as non-spin-polarized
 number of bands                                :         48

 ********************* Electronic Minimization Parameters **********************
  
 Method: Treating system as metallic with density mixing treatment of electrons,
         and number of  SD  steps               :          1
         and number of  CG  steps               :          4
  
 total energy / atom convergence tol.           : 0.1000E-06   eV
 eigen-energy convergence tolerance             : 0.2000E-07   eV
 max force / atom convergence tol.              : ignored
 convergence tolerance window                   :          3   cycles
 max. number of SCF cycles                      :         60
 number of fixed-spin iterations                :         10
 smearing scheme                                : Gaussian
 smearing width                                 : 0.2000       eV
 Fermi energy convergence tolerance             : 0.2721E-13   eV
 periodic dipole correction                     : NONE

 ************************** Density Mixing Parameters **************************
  
 density-mixing scheme                          : Pulay
 max. length of mixing history                  :         30
 charge density mixing amplitude                : 0.8000    
 cut-off energy for mixing                      :  400.0       eV

 *********************** Population Analysis Parameters ************************
  
 Population analysis with cutoff                :  3.000       A

 *******************************************************************************
  
 
                           -------------------------------
                                      Unit Cell
                           -------------------------------
        Real Lattice(A)                      Reciprocal Lattice(1/A)
   4.2000000   0.0000000   0.0000000        1.4959965   0.0000000   0.0000000
   0.0000000   4.2000000   0.0000000        0.0000000   1.4959965   0.0000000
   0.0000000   0.0000000   4.2000000        0.0000000   0.0000000   1.4959965
 
                       Lattice parameters(A)       Cell Angles
                    a =    4.200000          alpha =   90.000000
                    b =    4.200000          beta  =   90.000000
                    c =    4.200000          gamma =   90.000000
 
                       Current cell volume =   74.088000       A**3
 
                           -------------------------------
                                     Cell Contents
                           -------------------------------
                         Total number of ions in cell =    8
                      Total number of species in cell =    2
                        Max number of any one species =    4
 
            xxxxxxxxxxxxxxxxxxxxxxxxxxxxxxxxxxxxxxxxxxxxxxxxxxxxxxxxxxxx
            x  Element    Atom        Fractional coordinates of atoms  x
            x            Number           u          v          w      x
            x----------------------------------------------------------x
            x  Mg           1         0.000000   0.000000   0.000000   x 
            x  Mg           2         0.000000   0.500000   0.500000   x 
            x  Mg           3         0.500000   0.000000   0.500000   x 
            x  Mg           4         0.500000   0.500000   0.000000   x 
            x  Ca           1         0.500000   0.500000   0.500000   x 
            x  Ca           2         0.500000   0.000000   0.000000   x 
            x  Ca           3         0.000000   0.500000   0.000000   x 
            x  Ca           4         0.000000   0.000000   0.500000   x 
            xxxxxxxxxxxxxxxxxxxxxxxxxxxxxxxxxxxxxxxxxxxxxxxxxxxxxxxxxxxx
 
 
                         No user defined ionic velocities
 
                           -------------------------------
                                   Details of Species
                           -------------------------------
 
                               Mass of species in AMU
                                    Mg   24.3050000
                                    Ca   40.0780000
 
                          Electric Quadrupole Moment (Barn)
                                    Mg    0.1994000 Isotope 25
                                    Ca   -0.0408000 Isotope 43
 
                          Files used for pseudopotentials:
                                    Mg 3|1.8|7|8|9|20U:30:21:32
                                    Ca 3|2.0|7|8|9|30U:40:31:32
 
                           -------------------------------
                              k-Points For BZ Sampling
                           -------------------------------
                       MP grid size for SCF calculation is  3  3  3
                            with an offset of   0.000  0.000  0.000
                       Number of kpoints used =             4
 
                           -------------------------------
                               Symmetry and Constraints
                           -------------------------------
 
                      Cell is a supercell containing 4 primitive cells
                      Maximum deviation from symmetry = 0.940008E-15     ANG
 
                      Number of symmetry operations   =         192
                      Number of ionic constraints     =           3
                      Point group of crystal =    32: Oh, m-3m, 4/m -3 2/m
                      Space group of crystal =   225: Fm-3m, -F 4 2 3
 
             Set iprint > 1 for details on symmetry rotations/translations
 
                         Centre of mass is constrained
             Set iprint > 1 for details of linear ionic constraints
 
                         Number of cell constraints= 5
                         Cell constraints are:  1 1 1 0 0 0
 
                         External pressure/stress (GPa)
                          0.00000   0.00000   0.00000
                                    0.00000   0.00000
                                              0.00000
  
+---------------- MEMORY AND SCRATCH DISK ESTIMATES PER PROCESS --------------+
|                                                     Memory          Disk    |
| Baseline code, static data and system overhead      146.0 MB         0.0 MB |
| BLAS internal memory storage                          0.0 MB         0.0 MB |
| Model and support data                              128.6 MB         0.0 MB |
| Electronic energy minimisation requirements          13.8 MB         0.0 MB |
| Force calculation requirements                        3.5 MB         0.0 MB |
| Stress calculation requirements                       4.1 MB         0.0 MB |
|                                               ----------------------------- |
| Approx. total storage required per process          288.4 MB         0.0 MB |
|                                                                             |
| Requirements will fluctuate during execution and may exceed these estimates |
+-----------------------------------------------------------------------------+
Calculating finite basis set correction with  3 cut-off energies.
Calculating total energy with cut-off of  390.000eV.
------------------------------------------------------------------------ <-- SCF
SCF loop      Energy           Fermi           Energy gain       Timer   <-- SCF
                               energy          per atom          (sec)   <-- SCF
------------------------------------------------------------------------ <-- SCF
Initial  -8.65494961E+003  0.00000000E+000                         9.97  <-- SCF
      1  -1.05514218E+004  1.45460695E+001   2.37059024E+002      10.78  <-- SCF
      2  -1.07089840E+004  1.35232043E+001   1.96952767E+001      11.40  <-- SCF
      3  -1.07126025E+004  1.35810489E+001   4.52313518E-001      12.10  <-- SCF
      4  -1.07114800E+004  1.37481612E+001  -1.40319039E-001      12.86  <-- SCF
      5  -1.07114148E+004  1.37052488E+001  -8.14905888E-003      13.64  <-- SCF
      6  -1.07114095E+004  1.37239571E+001  -6.57634246E-004      14.46  <-- SCF
      7  -1.07114095E+004  1.37213840E+001   1.49035785E-006      15.34  <-- SCF
      8  -1.07114095E+004  1.37214587E+001   2.35146217E-007      16.02  <-- SCF
      9  -1.07114095E+004  1.37213371E+001  -1.29002133E-009      16.55  <-- SCF
     10  -1.07114095E+004  1.37213562E+001   1.97176821E-009      17.08  <-- SCF
     11  -1.07114095E+004  1.37213592E+001   8.15157361E-010      17.61  <-- SCF
------------------------------------------------------------------------ <-- SCF
 
Final energy, E             =  -10711.22965429     eV
Final free energy (E-TS)    =  -10711.40953251     eV
(energies not corrected for finite basis set)
 
NB est. 0K energy (E-0.5TS)      =  -10711.31959340     eV
 
Calculating total energy with cut-off of  395.000eV.
------------------------------------------------------------------------ <-- SCF
SCF loop      Energy           Fermi           Energy gain       Timer   <-- SCF
                               energy          per atom          (sec)   <-- SCF
------------------------------------------------------------------------ <-- SCF
Initial  -1.07112297E+004  0.00000000E+000                        17.92  <-- SCF
      1  -1.07114103E+004  1.37213602E+001   2.25817386E-002      18.53  <-- SCF
      2  -1.07114103E+004  1.37213602E+001   4.02151387E-008      19.10  <-- SCF
      3  -1.07114103E+004  1.37213371E+001   8.29561826E-009      19.63  <-- SCF
      4  -1.07114103E+004  1.37213425E+001   1.24245759E-009      20.17  <-- SCF
------------------------------------------------------------------------ <-- SCF
 
Final energy, E             =  -10711.23043293     eV
Final free energy (E-TS)    =  -10711.41030860     eV
(energies not corrected for finite basis set)
 
NB est. 0K energy (E-0.5TS)      =  -10711.32037077     eV
 
Calculating total energy with cut-off of  400.000eV.
------------------------------------------------------------------------ <-- SCF
SCF loop      Energy           Fermi           Energy gain       Timer   <-- SCF
                               energy          per atom          (sec)   <-- SCF
------------------------------------------------------------------------ <-- SCF
Initial  -1.07112304E+004  0.00000000E+000                        20.49  <-- SCF
      1  -1.07114112E+004  1.37213274E+001   2.25898769E-002      21.09  <-- SCF
      2  -1.07114112E+004  1.37213274E+001   5.72514636E-008      21.66  <-- SCF
      3  -1.07114112E+004  1.37213162E+001   7.44681825E-009      22.19  <-- SCF
      4  -1.07114112E+004  1.37213153E+001   1.22563627E-009      22.73  <-- SCF
------------------------------------------------------------------------ <-- SCF
 
Final energy, E             =  -10711.23126644     eV
Final free energy (E-TS)    =  -10711.41115247     eV
(energies not corrected for finite basis set)
 
NB est. 0K energy (E-0.5TS)      =  -10711.32120945     eV
 
 For future reference: finite basis dEtot/dlog(Ecut) =      -0.064058eV
 Total energy corrected for finite basis set =  -10711.411107 eV
 
 ***************** Symmetrised Forces *****************
 *                                                    *
 *            Cartesian components (eV/A)             *
 * -------------------------------------------------- *
 *                   x            y            z      *
 *                                                    *
 * Mg        1      0.00000      0.00000      0.00000 *
 * Mg        2      0.00000      0.00000      0.00000 *
 * Mg        3      0.00000      0.00000      0.00000 *
 * Mg        4      0.00000      0.00000      0.00000 *
 * Ca        1      0.00000      0.00000      0.00000 *
 * Ca        2      0.00000      0.00000      0.00000 *
 * Ca        3      0.00000      0.00000      0.00000 *
 * Ca        4      0.00000      0.00000      0.00000 *
 *                                                    *
 ******************************************************
 
 *********** Symmetrised Stress Tensor ***********
 *                                               *
 *          Cartesian components (GPa)           *
 * --------------------------------------------- *
 *             x             y             z     *
 *                                               *
 *  x   -201.613580      0.000000      0.000000  *
 *  y      0.000000   -201.613580      0.000000  *
 *  z      0.000000      0.000000   -201.613580  *
 *                                               *
 *  Pressure:  201.6136                          *
 *                                               *
 *************************************************
 
 Pseudo atomic calculation performed for Mg 2s2 2p6 3s2
 
 Converged in 19 iterations to a total energy of -1684.6096 eV
 
 
 Pseudo atomic calculation performed for Ca 3s2 3p6 4s2
 
 Converged in 24 iterations to a total energy of -1001.5939 eV
 
Charge spilling parameter for spin component 1 = 0.44%
 
     Atomic Populations (Mulliken)
     -----------------------------
Species   Ion     s      p      d      f     Total  Charge (e)
==============================================================
  Mg       1     2.54   7.52   0.00   0.00  10.06    -0.06
  Mg       2     2.54   7.52   0.00   0.00  10.06    -0.06
  Mg       3     2.54   7.52   0.00   0.00  10.06    -0.06
  Mg       4     2.54   7.52   0.00   0.00  10.06    -0.06
  Ca       1     1.49   5.72   2.73   0.00   9.94     0.06
  Ca       2     1.49   5.72   2.73   0.00   9.94     0.06
  Ca       3     1.49   5.72   2.73   0.00   9.94     0.06
  Ca       4     1.49   5.72   2.73   0.00   9.94     0.06
==============================================================
 
            Bond              Population      Length (A)
============================================================
         Mg 4 -- Ca 3             -5.60        2.10000
         Mg 4 -- Ca 2             -5.60        2.10000
         Mg 4 -- Ca 1             -5.60        2.10000
         Mg 3 -- Ca 4             -5.60        2.10000
         Mg 3 -- Ca 2             -5.60        2.10000
         Mg 3 -- Ca 1             -5.60        2.10000
         Mg 2 -- Ca 4             -5.60        2.10000
         Mg 2 -- Ca 3             -5.60        2.10000
         Mg 2 -- Ca 1             -5.60        2.10000
         Mg 1 -- Ca 4             -5.60        2.10000
         Mg 1 -- Ca 3             -5.60        2.10000
         Mg 1 -- Ca 2             -5.60        2.10000
         Ca 3 -- Ca 4             -6.47        2.96985
         Ca 2 -- Ca 4             -6.47        2.96985
         Ca 2 -- Ca 3             -6.47        2.96985
         Ca 1 -- Ca 4             -6.47        2.96985
         Ca 1 -- Ca 3             -6.47        2.96985
         Ca 1 -- Ca 2             -6.47        2.96985
         Mg 3 -- Mg 4             -0.03        2.96985
         Mg 2 -- Mg 4             -0.03        2.96985
         Mg 2 -- Mg 3             -0.03        2.96985
         Mg 1 -- Mg 4             -0.03        2.96985
         Mg 1 -- Mg 3             -0.03        2.96985
         Mg 1 -- Mg 2             -0.03        2.96985
============================================================
 

Writing analysis data to ../cutoff.castep_bin

Writing model to ../cutoff.check
 
 A BibTeX formatted list of references used in this run has been written to 
 ../cutoff.bib
 
Initialisation time =      8.47 s
Calculation time    =     18.14 s
Finalisation time   =      0.59 s
Total time          =     27.21 s
Peak Memory Use     = 528612 kB
 +-------------------------------------------------+
 |                                                 |
 |      CCC   AA    SSS  TTTTT  EEEEE  PPPP        |
 |     C     A  A  S       T    E      P   P       |
 |     C     AAAA   SS     T    EEE    PPPP        |
 |     C     A  A     S    T    E      P           |
 |      CCC  A  A  SSS     T    EEEEE  P           |
 |                                                 |
 +-------------------------------------------------+
 |                                                 |
 | Welcome to Academic Release CASTEP version 9.0  |
 | Ab Initio Total Energy Program                  |
 |                                                 |
 | Authors:                                        |
 | M. Segall, M. Probert, C. Pickard, P. Hasnip,   |
 | S. Clark, K. Refson, J. R. Yates, M. Payne      |
 |                                                 |
 | Contributors:                                   |
 | P. Lindan, P. Haynes, J. White, V. Milman,      |
 | N. Govind, M. Gibson, P. Tulip, V. Cocula,      |
 | B. Montanari, D. Quigley, M. Glover,            |
 | L. Bernasconi, A. Perlov, M. Plummer,           |
 | E. McNellis, J. Meyer, J. Gale, D. Jochym       |
 | J. Aarons, B. Walker, R. Gillen, D. Jones       |
 | T. Green, I. J. Bush, C. J. Armstrong,          |
 | E. J. Higgins, M. D. Hodgson                    |
 |                                                 |
 | Copyright (c) 2000 - 2015                       |
 |                                                 |
 |     Distributed under the terms of an           |
 |     Agreement between the United Kingdom        |
 |     Car-Parrinello (UKCP) Consortium,           |
 |     Daresbury Laboratory and Accelrys, Inc.     |
 |                                                 |
 | Please cite                                     |
 |                                                 |
 |     "First principles methods using CASTEP"     |
 |                                                 |
 |         Zeitschrift fuer Kristallographie       |
 |           220(5-6) pp. 567-570 (2005)           |
 |                                                 |
 | S. J. Clark, M. D. Segall, C. J. Pickard,       |
 | P. J. Hasnip, M. J. Probert, K. Refson,         |
 | M. C. Payne                                     |
 |                                                 |
 |       in all publications arising from          |
 |              your use of CASTEP                 |
 |                                                 |
 +-------------------------------------------------+
 
 
 Compiled for linux_x86_64_ifort12 on Fri, 09 Oct 2015 16:14:59 +0100
 from code version 01cdeb6dcbec+  Thu, 01 Oct 2015 17:06:55 +0100
 Compiler: Intel Fortran 12.1.5.339; Optimisation: fast
 MATHLIBS: Intel MKL(11.0.5) (LAPACK version 3.4.1)
 FFT Lib : default
 Fundamental constants values: CODATA 2010
 
 Run started: Fri, 29 Apr 2016 13:05:58 +0100
