 +-------------------------------------------------+
 |                                                 |
 |      CCC   AA    SSS  TTTTT  EEEEE  PPPP        |
 |     C     A  A  S       T    E      P   P       |
 |     C     AAAA   SS     T    EEE    PPPP        |
 |     C     A  A     S    T    E      P           |
 |      CCC  A  A  SSS     T    EEEEE  P           |
 |                                                 |
 +-------------------------------------------------+
 |                                                 |
 | Welcome to Academic Release CASTEP version 6.1  |
 | Ab Initio Total Energy Program                  |
 |                                                 |
 | Authors:                                        |
 | M. Segall, M. Probert, C. Pickard, P. Hasnip,   |
 | S. Clark, K. Refson, J. R. Yates, M. Payne      |
 |                                                 |
 | Contributors:                                   |
 | P. Lindan, P. Haynes, J. White, V. Milman,      |
 | N. Govind, M. Gibson, P. Tulip, V. Cocula,      |
 | B. Montanari, D. Quigley, M. Glover,            |
 | L. Bernasconi, A. Perlov, M. Plummer,           |
 | E. McNellis, J. Meyer, J. Gale, D. Jochym       |
 | J. Aarons, B. Walker, R. Gillen                 |
 |                                                 |
 | Copyright (c) 2000 - 2012                       |
 |                                                 |
 |     Distributed under the terms of an           |
 |     Agreement between the United Kingdom        |
 |     Car-Parrinello (UKCP) Consortium,           |
 |     Daresbury Laboratory and Accelrys, Inc.     |
 |                                                 |
 | Please cite                                     |
 |                                                 |
 |     "First principles methods using CASTEP"     |
 |                                                 |
 |         Zeitschrift fuer Kristallographie       |
 |           220(5-6) pp. 567-570 (2005)           |
 |                                                 |
 | S. J. Clark, M. D. Segall, C. J. Pickard,       |
 | P. J. Hasnip, M. J. Probert, K. Refson,         |
 | M. C. Payne                                     |
 |                                                 |
 |       in all publications arising from          |
 |              your use of CASTEP                 |
 |                                                 |
 +-------------------------------------------------+


 Compiled for linux_x86_64_gfortran on Wed Nov 21 15:08:09 2012
 from source code version eaed21d6e002+  2012-10-31
 using fast optimisation, fftw3 FFTs and openblas LAPACK and BLAS.


 Atomic calculation performed for O: 1s2 2s2 2p4

 Converged in 60 iterations to an ae energy of -2027.926 eV

   ============================================================                
   | Pseudopotential Report - Date of generation  3-05-2016   |                
   ------------------------------------------------------------                
   | Element: O Ionic charge:  6.00 Level of theory: LDA      |                
   |                                                          |                
   |               Reference Electronic Structure             |                
   |         Orbital         Occupation         Energy        |                
   |            2s              2.000           -0.873        |                
   |            2p              4.000           -0.338        |                
   |                                                          |                
   |                 Pseudopotential Definition               |                
   |        Beta     l      e      Rc     scheme   norm       |                
   |          1      0   -0.873   1.300     qc      0         |                
   |          2      0    0.250   1.300     qc      0         |                
   |          3      1   -0.338   1.300     qc      0         |                
   |          4      1    0.250   1.300     qc      0         |                
   |         loc     2    0.000   1.004     pn      0         |                
   |                                                          |                
   | Augmentation charge Rinner = 0.701                       |                
   | Partial core correction Rc = 0.701                       |                
   ------------------------------------------------------------                
   | "2|1.0|1.3|0.7|13|16|18|20:21(qc=7)"                     |                
   ------------------------------------------------------------                
   |      Author: Chris J. Pickard, Cambridge University      |                
   ============================================================                

 Atomic calculation performed for Mg: 1s2 2s2 2p6 3s2

 Converged in 47 iterations to an ae energy of -5427.407 eV

 Identity difference:   5.17267234911703770E-004

   ============================================================                
   | Pseudopotential Report - Date of generation  3-05-2016   |                
   ------------------------------------------------------------                
   | Element: Mg Ionic charge:  8.00 Level of theory: LDA     |                
   |                                                          |                
   |               Reference Electronic Structure             |                
   |         Orbital         Occupation         Energy        |                
   |            2p              6.000           -1.717        |                
   |            3s              2.000           -0.176        |                
   |                                                          |                
   |                 Pseudopotential Definition               |                
   |        Beta     l      e      Rc     scheme   norm       |                
   |          1      0   -0.176   1.994     qc      1         |                
   |          2      1   -1.717   1.994     qc      0         |                
   |          3      1    0.000   1.994     qc      0         |                
   |          4      1    0.250   1.994     qc      0         |                
   |         loc     2    0.000   1.605     pn      0         |                
   |                                                          |                
   | Augmentation charge Rinner = 1.405                       |                
   | Partial core correction Rc = 1.405                       |                
   ------------------------------------------------------------                
   | "2|1.6|2|1.4|6|7|8|30NH:21U:31UU:32LGG(qc=4.5)[]"        |                
   ------------------------------------------------------------                
   |      Author: Chris J. Pickard, Cambridge University      |                
   ============================================================                

 Doing a self consistent calculation for the test configuration

 Atomic calculation performed for Mg: 1s2 2s2 2p6 3s2

 Converged in 47 iterations to an ae energy of -5427.407 eV

 ---------------------------------------
 AE eigenvalue nl 10 =      -46.06264936
 AE eigenvalue nl 20 =       -2.91364591
 AE eigenvalue nl 21 =       -1.71672732
 AE eigenvalue nl 30 =       -0.17593422
 ---------------------------------------
 PS eigenvalue nl 21 =       -1.71622098
 PS eigenvalue nl 30 =       -0.17592300
 ---------------------------------------

 Atomic calculation performed for Ca: 1s2 2s2 2p6 3s2 3p6 4s2

 Converged in 44 iterations to an ae energy of -18468.058 eV

   ============================================================                
   | Pseudopotential Report - Date of generation  3-05-2016   |                
   ------------------------------------------------------------                
   | Element: Ca Ionic charge: 10.00 Level of theory: LDA     |                
   |                                                          |                
   |               Reference Electronic Structure             |                
   |         Orbital         Occupation         Energy        |                
   |            3s              2.000           -1.721        |                
   |            3p              6.000           -1.028        |                
   |            4s              2.000           -0.142        |                
   |                                                          |                
   |                 Pseudopotential Definition               |                
   |        Beta     l      e      Rc     scheme   norm       |                
   |          1      0   -1.721   2.005     qc      0         |                
   |          2      0   -0.142   2.005     qc      0         |                
   |          3      1   -1.028   2.005     qc      0         |                
   |          4      1    0.250   2.005     qc      0         |                
   |          5      2    0.000   2.005     qc      0         |                
   |          6      2    1.000   2.005     qc      0         |                
   |         loc     3    0.000   1.601     pn      0         |                
   |                                                          |                
   | Augmentation charge Rinner = 1.401                       |                
   | Partial core correction Rc = 1.401                       |                
   ------------------------------------------------------------                
   | "3|1.6|2.0|1.4|7|9|10|30U:40U:31:32U=0U=1.0"             |                
   ------------------------------------------------------------                
   |      Author: Chris J. Pickard, Cambridge University      |                
   ============================================================                

 Pseudo atomic calculation performed for O 2s2 2p4

 Converged in 30 iterations to a total energy of -431.1785 eV


 Pseudo atomic calculation performed for Mg 2p6 3s2

 Converged in 23 iterations to a total energy of -1024.5896 eV


 Pseudo atomic calculation performed for Ca 3s2 3p6 4s2

 Converged in 24 iterations to a total energy of -1000.4330 eV

 Calculation parallelised over 2 processes.
 Data is distributed by k-point(2-way)

 ************************************ Title ************************************
 MgO

 ***************************** General Parameters ******************************
  
 output verbosity                               : normal  (1)
 write checkpoint data to                       : dan_2.check
 type of calculation                            : single point energy
 stress calculation                             : on
 density difference calculation                 : off
 electron localisation func (ELF) calculation   : off
 Hirshfeld analysis                             : off
 unlimited duration calculation
 timing information                             : on
 memory usage estimate                          : on
 write final potential to formatted file        : off
 write final density to formatted file          : off
 write BibTeX reference list                    : on
  
 output         length unit                     : A
 output           mass unit                     : amu
 output           time unit                     : ps
 output         charge unit                     : e
 output         energy unit                     : eV
 output          force unit                     : eV/A
 output       velocity unit                     : A/ps
 output       pressure unit                     : GPa
 output     inv_length unit                     : 1/A
 output      frequency unit                     : cm-1
 output force constant unit                     : eV/A**2
 output         volume unit                     : A**3
 output   IR intensity unit                     : (D/A)**2/amu
 output         dipole unit                     : D
 output         efield unit                     : eV/A/e
 output        entropy unit                     : J/mol/K
  
 wavefunctions paging                           : none
 random number generator seed                   : randomised (220924997)
 data distribution                              : optimal for this architecture
 optimization strategy                          : maximize speed(+++)

 *********************** Exchange-Correlation Parameters ***********************
  
 using functional                               : Local Density Approximation
 Divergence correction                          : off
 DFT+D: Semi-empirical dispersion correction    : off

 ************************* Pseudopotential Parameters **************************
  
 pseudopotential representation                 : reciprocal space
 <beta|phi> representation                      : reciprocal space

 **************************** Basis Set Parameters *****************************
  
 plane wave basis set cut-off                   :   350.0000   eV
 size of standard grid                          :     2.0000
 size of   fine   gmax                          :    19.1691   1/A
 largest prime factor in FFT                    :          5
 finite basis set correction                    : automatic
 number of sample energies                      :          3
           sample  spacing                      :     5.0000   eV

 **************************** Electronic Parameters ****************************
  
 number of  electrons                           :  204.0    
 net charge of system                           :  0.000    
 net spin   of system                           :  0.000    
 number of  up  spins                           :  102.0    
 number of down spins                           :  102.0    
 treating system as non-spin-polarized
 number of bands                                :        122

 ********************* Electronic Minimization Parameters **********************
  
 Method: Treating system as metallic with density mixing treatment of electrons,
         and number of  SD  steps               :          1
         and number of  CG  steps               :          4
  
 total energy / atom convergence tol.           : 0.1000E-06   eV
 eigen-energy convergence tolerance             : 0.2647E-07   eV
 max force / atom convergence tol.              : ignored
 convergence tolerance window                   :          3   cycles
 max. number of SCF cycles                      :         60
 number of fixed-spin iterations                :         10
 smearing scheme                                : Gaussian
 smearing width                                 : 0.2000       eV
 Fermi energy convergence tolerance             : 0.2647E-08   eV
 periodic dipole correction                     : NONE

 ************************** Density Mixing Parameters **************************
  
 density-mixing scheme                          : Pulay
 max. length of mixing history                  :         30
 charge density mixing amplitude                : 0.8000    
 cut-off energy for mixing                      :  350.0       eV
 charge density mixing g-vector                 :  1.500       1/A

 *********************** Population Analysis Parameters ************************
  
 Population analysis with cutoff                :  3.000       A

 *******************************************************************************
  

                           -------------------------------
                                      Unit Cell
                           -------------------------------
        Real Lattice(A)                      Reciprocal Lattice(1/A)
   8.4000000   0.0000000   0.0000000        0.7479983   0.0000000   0.0000000
   0.0000000   8.4000000   0.0000000        0.0000000   0.7479983   0.0000000
   0.0000000   0.0000000   8.4000000        0.0000000   0.0000000   0.7479983

                       Lattice parameters(A)       Cell Angles
                    a =    8.400000          alpha =   90.000000
                    b =    8.400000          beta  =   90.000000
                    c =    8.400000          gamma =   90.000000

                       Current cell volume =  592.704000       A**3

                           -------------------------------
                                     Cell Contents
                           -------------------------------
                         Total number of ions in cell =   27
                      Total number of species in cell =    3
                        Max number of any one species =   13

            xxxxxxxxxxxxxxxxxxxxxxxxxxxxxxxxxxxxxxxxxxxxxxxxxxxxxxxxxxxx
            x  Element    Atom        Fractional coordinates of atoms  x
            x            Number           u          v          w      x
            x----------------------------------------------------------x
            x  O            1         0.375000   0.000000   0.000000   x
            x  O            2         0.000000   0.375000   0.000000   x
            x  O            3         0.750000   0.375000   0.000000   x
            x  O            4         0.375000   0.750000   0.000000   x
            x  O            5         0.000000   0.000000   0.375000   x
            x  O            6         0.750000   0.000000   0.375000   x
            x  O            7         0.375000   0.375000   0.375000   x
            x  O            8         0.000000   0.750000   0.375000   x
            x  O            9         0.750000   0.750000   0.375000   x
            x  O           10         0.375000   0.000000   0.750000   x
            x  O           11         0.000000   0.375000   0.750000   x
            x  O           12         0.750000   0.375000   0.750000   x
            x  O           13         0.375000   0.750000   0.750000   x
            x  Mg           1         0.000000   0.000000   0.000000   x
            x  Mg           2         0.750000   0.000000   0.000000   x
            x  Mg           3         0.375000   0.375000   0.000000   x
            x  Mg           4         0.000000   0.750000   0.000000   x
            x  Mg           5         0.750000   0.750000   0.000000   x
            x  Mg           6         0.750000   0.375000   0.375000   x
            x  Mg           7         0.375000   0.750000   0.375000   x
            x  Ca           1         0.375000   0.000000   0.375000   x
            x  Ca           2         0.000000   0.375000   0.375000   x
            x  Ca           3         0.000000   0.000000   0.750000   x
            x  Ca           4         0.750000   0.000000   0.750000   x
            x  Ca           5         0.375000   0.375000   0.750000   x
            x  Ca           6         0.000000   0.750000   0.750000   x
            x  Ca           7         0.750000   0.750000   0.750000   x
            xxxxxxxxxxxxxxxxxxxxxxxxxxxxxxxxxxxxxxxxxxxxxxxxxxxxxxxxxxxx


                         No user defined ionic velocities

                           -------------------------------
                                   Details of Species
                           -------------------------------

                               Mass of species in AMU
                                    O   15.9994000
                                    Mg   24.3050000
                                    Ca   40.0780000

                          Electric Quadrupole Moment (Barn)
                                    O   -0.0255800 Isotope 17
                                    Mg    0.1994000 Isotope 25
                                    Ca   -0.0408000 Isotope 43

                          Files used for pseudopotentials:
                                    O Pseudopotential generated on-the-fly
                                    Mg Pseudopotential generated on-the-fly
                                    Ca Pseudopotential generated on-the-fly

                           -------------------------------
                              k-Points For BZ Sampling
                           -------------------------------
                       MP grid size for SCF calculation is  3  3  3
                         Number of kpoints used =          10

             +++++++++++++++++++++++++++++++++++++++++++++++++++++++
             +  Number       Fractional coordinates        Weight  +
             +-----------------------------------------------------+
             +     1  -0.333333  -0.333333   0.000000   0.0740741  +
             +     2  -0.333333   0.000000  -0.333333   0.1481481  +
             +     3  -0.333333   0.333333   0.000000   0.0740741  +
             +     4   0.000000   0.000000  -0.333333   0.0740741  +
             +     5   0.000000   0.000000   0.000000   0.0370370  +
             +     6   0.000000   0.333333  -0.333333   0.1481481  +
             +     7   0.000000   0.333333   0.000000   0.1481481  +
             +     8   0.333333  -0.333333  -0.333333   0.1481481  +
             +     9   0.333333   0.333333  -0.333333   0.0740741  +
             +    10   0.333333   0.333333   0.333333   0.0740741  +
             +++++++++++++++++++++++++++++++++++++++++++++++++++++++

                           -------------------------------
                               Symmetry and Constraints
                           -------------------------------

                      Number of symmetry operations   =           2
                      Number of ionic constraints     =           3
                      Maximum deviation from symmetry =  0.00000         ANG
               Point group of crystal =     3: Cs, m, m
           Set iprint > 1 for details on symmetry rotations/translations

                          Centre of mass is constrained
             Set iprint > 1 for details of linear ionic constraints

                         Number of cell constraints= 5
                         Cell constraints are:  1 1 1 0 0 0

                         External pressure/stress (GPa)
                          0.00000   0.00000   0.00000
                                    0.00000   0.00000
                                              0.00000
  
+---------------- MEMORY AND SCRATCH DISK ESTIMATES PER NODE -----------------+
|                                                     Memory          Disk    |
| Model and support data                              527.7 MB         0.0 MB |
| Electronic energy minimisation requirements         201.4 MB         0.0 MB |
|                                               ----------------------------- |
| Approx. total storage required per node             729.1 MB         0.0 MB |
|                                                                             |
| Requirements will fluctuate during execution and may exceed these estimates |
+-----------------------------------------------------------------------------+
Calculating finite basis set correction with  3 cut-off energies.
Calculating total energy with cut-off of  340.000eV.
------------------------------------------------------------------------ <-- SCF
SCF loop      Energy           Fermi           Energy gain       Timer   <-- SCF
                               energy          per atom          (sec)   <-- SCF
------------------------------------------------------------------------ <-- SCF
Initial  -1.72840773E+004  0.00000000E+000                        57.84  <-- SCF
      1  -1.89820841E+004  4.27474918E+000   6.28891402E+001     176.13  <-- SCF
      2  -1.98108732E+004  4.70261477E-001   3.06958915E+001     268.38  <-- SCF
      3  -1.98718475E+004  3.26208266E-001   2.25830683E+000     357.92  <-- SCF
      4  -1.98730841E+004  2.95589095E+000   4.58009181E-002     479.72  <-- SCF
      5  -1.98591446E+004  2.47310821E+000  -5.16277302E-001     598.35  <-- SCF
      6  -1.98510162E+004  2.02352474E+000  -3.01051325E-001     752.72  <-- SCF
      7  -1.98439945E+004  1.85450406E+000  -2.60062621E-001     925.82  <-- SCF
      8  -1.98441112E+004  1.94093370E+000   4.32062059E-003    1070.44  <-- SCF
      9  -1.98433109E+004  1.94036637E+000  -2.96408191E-002    1172.18  <-- SCF
     10  -1.98430807E+004  1.90059425E+000  -8.52682032E-003    1276.10  <-- SCF
     11  -1.98430473E+004  1.88187881E+000  -1.23369817E-003    1400.34  <-- SCF
     12  -1.98429662E+004  1.90200500E+000  -3.00398869E-003    1522.17  <-- SCF
     13  -1.98429475E+004  1.90387188E+000  -6.94677476E-004    1662.09  <-- SCF
     14  -1.98429295E+004  1.91177698E+000  -6.64330063E-004    1805.38  <-- SCF
     15  -1.98429310E+004  1.90816123E+000   5.32023827E-005    1937.17  <-- SCF
     16  -1.98429282E+004  1.90857552E+000  -1.01984237E-004    2238.23  <-- SCF
     17  -1.98429281E+004  1.90881169E+000  -2.98795458E-006    2350.98  <-- SCF
     18  -1.98429281E+004  1.90911398E+000  -1.55848220E-006    2456.11  <-- SCF
     19  -1.98429281E+004  1.90962964E+000  -9.94242299E-007    2559.98  <-- SCF
     20  -1.98429281E+004  1.90959127E+000  -1.62594588E-007    2625.67  <-- SCF
     21  -1.98429281E+004  1.90951128E+000  -1.70473239E-008    2767.37  <-- SCF
     22  -1.98429281E+004  1.90953571E+000  -6.24386810E-009    2839.76  <-- SCF
------------------------------------------------------------------------ <-- SCF
 
Final energy, E             =  -19842.45273842     eV
Final free energy (E-TS)    =  -19842.92807489     eV
(energies not corrected for finite basis set)
 
NB est. 0K energy (E-0.5TS)      =  -19842.69040666     eV
 
Calculating total energy with cut-off of  345.000eV.
------------------------------------------------------------------------ <-- SCF
SCF loop      Energy           Fermi           Energy gain       Timer   <-- SCF
                               energy          per atom          (sec)   <-- SCF
------------------------------------------------------------------------ <-- SCF
Initial  -1.98424527E+004  0.00000000E+000                      2893.89  <-- SCF
      1  -1.98446736E+004  1.89169486E+000   8.22555941E-002    2976.14  <-- SCF
      2  -1.98446773E+004  1.89169592E+000   1.36494308E-004    3071.82  <-- SCF
      3  -1.98447667E+004  1.94317245E+000   3.31184812E-003    3164.46  <-- SCF
      4  -1.98446776E+004  1.91090348E+000  -3.30016039E-003    3249.63  <-- SCF
      5  -1.98446721E+004  1.90900604E+000  -2.06096015E-004    3585.13  <-- SCF
      6  -1.98446715E+004  1.90033836E+000  -2.13356784E-005    3702.13  <-- SCF
      7  -1.98446715E+004  1.90479519E+000   1.57470548E-006    3786.31  <-- SCF
      8  -1.98446706E+004  1.90741560E+000  -3.67238259E-005    3937.99  <-- SCF
      9  -1.98446707E+004  1.90776630E+000   6.30479093E-006    4049.01  <-- SCF
     10  -1.98446706E+004  1.90722348E+000  -6.17133748E-006    4166.00  <-- SCF
     11  -1.98446704E+004  1.90728387E+000  -3.96119047E-006    4251.95  <-- SCF
     12  -1.98446705E+004  1.90660287E+000   1.46075807E-006    4391.21  <-- SCF
     13  -1.98446704E+004  1.90683811E+000  -2.88685800E-006    4517.29  <-- SCF
     14  -1.98446704E+004  1.90689805E+000   1.51390227E-007    4567.54  <-- SCF
     15  -1.98446704E+004  1.90690862E+000   2.05092649E-009    4774.41  <-- SCF
     16  -1.98446704E+004  1.90691635E+000  -9.21397630E-008    5079.21  <-- SCF
------------------------------------------------------------------------ <-- SCF
 
Final energy, E             =  -19844.19536962     eV
Final free energy (E-TS)    =  -19844.67041031     eV
(energies not corrected for finite basis set)
 
NB est. 0K energy (E-0.5TS)      =  -19844.43288997     eV
 
Calculating total energy with cut-off of  350.000eV.
------------------------------------------------------------------------ <-- SCF
SCF loop      Energy           Fermi           Energy gain       Timer   <-- SCF
                               energy          per atom          (sec)   <-- SCF
------------------------------------------------------------------------ <-- SCF
Initial  -1.98441954E+004  0.00000000E+000                      5214.23  <-- SCF
      1  -1.98464656E+004  1.88806328E+000   8.40810873E-002    5292.87  <-- SCF
      2  -1.98464693E+004  1.88805154E+000   1.36813217E-004    5368.66  <-- SCF
      3  -1.98465911E+004  1.94504582E+000   4.51208458E-003    5460.27  <-- SCF
      4  -1.98464704E+004  1.90826280E+000  -4.46843623E-003    5551.11  <-- SCF
      5  -1.98464619E+004  1.90571537E+000  -3.15242591E-004    5785.68  <-- SCF
      6  -1.98464625E+004  1.89743173E+000   2.20619182E-005    5916.15  <-- SCF
      7  -1.98464625E+004  1.89992819E+000  -1.56934030E-006    6023.76  <-- SCF
      8  -1.98464612E+004  1.90372227E+000  -4.79019354E-005    6179.84  <-- SCF
      9  -1.98464611E+004  1.90466221E+000  -1.20868293E-006    6326.18  <-- SCF
     10  -1.98464612E+004  1.90394129E+000   2.47832272E-006    6471.67  <-- SCF
     11  -1.98464610E+004  1.90407348E+000  -7.72412406E-006    6583.45  <-- SCF
     12  -1.98464611E+004  1.90328838E+000   2.48659632E-006    6652.28  <-- SCF
     13  -1.98464610E+004  1.90352647E+000  -3.60837852E-006    6724.08  <-- SCF
     14  -1.98464610E+004  1.90351271E+000   6.09130208E-007    6786.82  <-- SCF
     15  -1.98464610E+004  1.90355972E+000  -4.91392362E-007    6846.04  <-- SCF
     16  -1.98464610E+004  1.90359278E+000  -4.97126248E-009    6899.14  <-- SCF
     17  -1.98464610E+004  1.90362158E+000   7.71973313E-009    6950.64  <-- SCF
------------------------------------------------------------------------ <-- SCF
 
Final energy, E             =  -19845.98225800     eV
Final free energy (E-TS)    =  -19846.46097637     eV
(energies not corrected for finite basis set)
 
NB est. 0K energy (E-0.5TS)      =  -19846.22161718     eV
 
 For future reference: finite basis dEtot/dlog(Ecut) =    -123.851268eV
 Total energy corrected for finite basis set =  -19846.451128 eV

 ***************** Symmetrised Forces *****************
 *                                                    *
 *            Cartesian components (eV/A)             *
 * -------------------------------------------------- *
 *                   x            y            z      *
 *                                                    *
 * O         1     -0.00151     -0.51087     -0.28891 *
 * O         2     -0.51087     -0.00151     -0.28891 *
 * O         3      0.60295     -0.00007     -0.69186 *
 * O         4     -0.00007      0.60295     -0.69186 *
 * O         5     -0.07736     -0.07736      0.26515 *
 * O         6      0.14958     -0.47442      0.25394 *
 * O         7     -0.46778     -0.46778      0.47100 *
 * O         8     -0.47442      0.14958      0.25394 *
 * O         9      0.56948      0.56948      0.24147 *
 * O        10     -0.01068     -0.01481      0.05819 *
 * O        11     -0.01481     -0.01068      0.05819 *
 * O        12      0.09046     -0.00749      0.47265 *
 * O        13     -0.00749      0.09046      0.47265 *
 * Mg        1      5.93783      5.93783      6.15213 *
 * Mg        2     -5.93595      5.97619      6.19060 *
 * Mg        3      0.02735      0.02735      8.70611 *
 * Mg        4      5.97619     -5.93595      6.19060 *
 * Mg        5     -5.97552     -5.97552      6.22975 *
 * Mg        6     -8.73768      0.02418     -0.03068 *
 * Mg        7      0.02418     -8.73768     -0.03068 *
 * Ca        1      0.03632      8.75679     -0.13929 *
 * Ca        2      8.75679      0.03632     -0.13929 *
 * Ca        3      5.66300      5.66300     -6.19421 *
 * Ca        4     -5.65822      5.69755     -6.24660 *
 * Ca        5      0.03736      0.03736     -8.73102 *
 * Ca        6      5.69755     -5.65822     -6.24660 *
 * Ca        7     -5.69668     -5.69668     -6.29644 *
 *                                                    *
 ******************************************************

 *********** Symmetrised Stress Tensor ***********
 *                                               *
 *          Cartesian components (GPa)           *
 * --------------------------------------------- *
 *             x             y             z     *
 *                                               *
 *  x     -2.080492      0.081241     -0.061437  *
 *  y      0.081241     -2.080492     -0.061437  *
 *  z     -0.061437     -0.061437     -2.368167  *
 *                                               *
 *  Pressure:    2.1764                          *
 *                                               *
 *************************************************

 Pseudo atomic calculation performed for O 2s2 2p4

 Converged in 30 iterations to a total energy of -431.1785 eV


 Pseudo atomic calculation performed for Mg 2p6 3s2

 Converged in 23 iterations to a total energy of -1024.5896 eV


 Pseudo atomic calculation performed for Ca 3s2 3p6 4s2

 Converged in 24 iterations to a total energy of -1000.4330 eV

Charge spilling parameter for spin component 1 = 0.42%

     Atomic Populations (Mulliken)
     -----------------------------
Species   Ion     s      p      d      f     Total  Charge (e)
==============================================================
  O        1     1.98   4.45   0.00   0.00   6.43    -0.43
  O        2     1.98   4.45   0.00   0.00   6.43    -0.43
  O        3     1.98   4.41   0.00   0.00   6.39    -0.39
  O        4     1.98   4.41   0.00   0.00   6.39    -0.39
  O        5     1.98   4.53   0.00   0.00   6.51    -0.51
  O        6     1.98   4.49   0.00   0.00   6.47    -0.47
  O        7     1.96   4.82   0.00   0.00   6.79    -0.79
  O        8     1.98   4.49   0.00   0.00   6.47    -0.47
  O        9     1.98   4.45   0.00   0.00   6.43    -0.43
  O       10     1.98   4.56   0.00   0.00   6.54    -0.54
  O       11     1.98   4.56   0.00   0.00   6.54    -0.54
  O       12     1.98   4.52   0.00   0.00   6.50    -0.50
  O       13     1.98   4.52   0.00   0.00   6.50    -0.50
  Mg       1     1.09   6.64   0.00   0.00   7.73     0.27
  Mg       2     1.09   6.60   0.00   0.00   7.70     0.30
  Mg       3     1.17   6.68   0.00   0.00   7.85     0.15
  Mg       4     1.09   6.60   0.00   0.00   7.70     0.30
  Mg       5     1.09   6.57   0.00   0.00   7.66     0.34
  Mg       6     1.19   6.64   0.00   0.00   7.83     0.17
  Mg       7     1.19   6.64   0.00   0.00   7.83     0.17
  Ca       1     2.32   5.99   0.65   0.00   8.96     1.04
  Ca       2     2.32   5.99   0.65   0.00   8.96     1.04
  Ca       3     2.14   5.92   1.60   0.00   9.66     0.34
  Ca       4     2.10   5.92   1.59   0.00   9.61     0.39
  Ca       5     2.33   5.99   0.66   0.00   8.98     1.02
  Ca       6     2.10   5.92   1.59   0.00   9.61     0.39
  Ca       7     2.07   5.92   1.58   0.00   9.57     0.43
==============================================================

            Bond              Population      Length (A)
============================================================
         Ca 6 -- Ca 7             -0.04        2.10000
         Ca 4 -- Ca 7             -0.04        2.10000
         Ca 3 -- Ca 6             -0.07        2.10000
         Ca 3 -- Ca 4             -0.07        2.10000
         Mg 7 -- Ca 1             -0.47        2.10000
         Mg 6 -- Ca 2             -0.47        2.10000
         Mg 5 -- Ca 7             -0.28        2.10000
         Mg 4 -- Ca 6             -0.26        2.10000
         Mg 4 -- Mg 5              0.30        2.10000
         Mg 3 -- Ca 5             -0.47        2.10000
         Mg 2 -- Ca 4             -0.26        2.10000
         Mg 2 -- Mg 5              0.30        2.10000
         Mg 1 -- Ca 3             -0.24        2.10000
         Mg 1 -- Mg 4              0.29        2.10000
         Mg 1 -- Mg 2              0.29        2.10000
         O 11 -- O 12              0.04        2.10000
         O 10 -- O 13              0.04        2.10000
         O 8  -- O 9               0.07        2.10000
         O 6  -- O 9               0.07        2.10000
         O 5  -- O 8               0.04        2.10000
         O 5  -- O 6               0.04        2.10000
         O 4  -- O 13              0.07        2.10000
         O 3  -- O 12              0.07        2.10000
         O 2  -- O 11              0.05        2.10000
         O 2  -- O 3               0.08        2.10000
         O 1  -- O 10              0.05        2.10000
         O 1  -- O 4               0.08        2.10000
         Ca 4 -- Ca 6              0.16        2.96985
         Ca 3 -- Ca 7              0.16        2.96985
         Mg 5 -- Ca 6             -0.07        2.96985
         Mg 5 -- Ca 4             -0.07        2.96985
         Mg 4 -- Ca 7             -0.08        2.96985
         Mg 4 -- Ca 3             -0.08        2.96985
         Mg 2 -- Ca 7             -0.08        2.96985
         Mg 2 -- Ca 3             -0.08        2.96985
         Mg 2 -- Mg 4             -1.73        2.96985
         Mg 1 -- Ca 6             -0.09        2.96985
         Mg 1 -- Ca 4             -0.09        2.96985
         Mg 1 -- Mg 5             -1.73        2.96985
         O 6  -- O 8              -0.04        2.96985
         O 5  -- O 9              -0.04        2.96985
         O 4  -- O 10             -0.04        2.96985
         O 3  -- O 11             -0.04        2.96985
         O 2  -- O 12             -0.03        2.96985
         O 1  -- O 13             -0.03        2.96985
============================================================


Writing model to dan_2.check

Writing analysis data to dan_2.castep_bin
 
 A BibTeX formatted list of references used in this run has been written to 
 dan_2.bib
 
Initialisation time =     34.04 s
Calculation time    =   7120.56 s
Finalisation time   =      3.46 s
Total time          =   7158.06 s
Peak Memory Use     = 1017396 kB
  
Overall parallel efficiency rating: Excellent (95%)                             
  
Data was distributed by:-
k-point (2-way); efficiency rating: Excellent (95%)                             
