 +-------------------------------------------------+
 |                                                 |
 |      CCC   AA    SSS  TTTTT  EEEEE  PPPP        |
 |     C     A  A  S       T    E      P   P       |
 |     C     AAAA   SS     T    EEE    PPPP        |
 |     C     A  A     S    T    E      P           |
 |      CCC  A  A  SSS     T    EEEEE  P           |
 |                                                 |
 +-------------------------------------------------+
 |                                                 |
 | Welcome to Academic Release CASTEP version 6.1  |
 | Ab Initio Total Energy Program                  |
 |                                                 |
 | Authors:                                        |
 | M. Segall, M. Probert, C. Pickard, P. Hasnip,   |
 | S. Clark, K. Refson, J. R. Yates, M. Payne      |
 |                                                 |
 | Contributors:                                   |
 | P. Lindan, P. Haynes, J. White, V. Milman,      |
 | N. Govind, M. Gibson, P. Tulip, V. Cocula,      |
 | B. Montanari, D. Quigley, M. Glover,            |
 | L. Bernasconi, A. Perlov, M. Plummer,           |
 | E. McNellis, J. Meyer, J. Gale, D. Jochym       |
 | J. Aarons, B. Walker, R. Gillen                 |
 |                                                 |
 | Copyright (c) 2000 - 2012                       |
 |                                                 |
 |     Distributed under the terms of an           |
 |     Agreement between the United Kingdom        |
 |     Car-Parrinello (UKCP) Consortium,           |
 |     Daresbury Laboratory and Accelrys, Inc.     |
 |                                                 |
 | Please cite                                     |
 |                                                 |
 |     "First principles methods using CASTEP"     |
 |                                                 |
 |         Zeitschrift fuer Kristallographie       |
 |           220(5-6) pp. 567-570 (2005)           |
 |                                                 |
 | S. J. Clark, M. D. Segall, C. J. Pickard,       |
 | P. J. Hasnip, M. J. Probert, K. Refson,         |
 | M. C. Payne                                     |
 |                                                 |
 |       in all publications arising from          |
 |              your use of CASTEP                 |
 |                                                 |
 +-------------------------------------------------+


 Compiled for linux_x86_64_gfortran on Wed Nov 21 15:08:09 2012
 from source code version eaed21d6e002+  2012-10-31
 using fast optimisation, fftw3 FFTs and openblas LAPACK and BLAS.


 Atomic calculation performed for O: 1s2 2s2 2p4

 Converged in 60 iterations to an ae energy of -2027.926 eV

   ============================================================                
   | Pseudopotential Report - Date of generation  3-05-2016   |                
   ------------------------------------------------------------                
   | Element: O Ionic charge:  6.00 Level of theory: LDA      |                
   |                                                          |                
   |               Reference Electronic Structure             |                
   |         Orbital         Occupation         Energy        |                
   |            2s              2.000           -0.873        |                
   |            2p              4.000           -0.338        |                
   |                                                          |                
   |                 Pseudopotential Definition               |                
   |        Beta     l      e      Rc     scheme   norm       |                
   |          1      0   -0.873   1.300     qc      0         |                
   |          2      0    0.250   1.300     qc      0         |                
   |          3      1   -0.338   1.300     qc      0         |                
   |          4      1    0.250   1.300     qc      0         |                
   |         loc     2    0.000   1.004     pn      0         |                
   |                                                          |                
   | Augmentation charge Rinner = 0.701                       |                
   | Partial core correction Rc = 0.701                       |                
   ------------------------------------------------------------                
   | "2|1.0|1.3|0.7|13|16|18|20:21(qc=7)"                     |                
   ------------------------------------------------------------                
   |      Author: Chris J. Pickard, Cambridge University      |                
   ============================================================                

 Atomic calculation performed for Mg: 1s2 2s2 2p6 3s2

 Converged in 47 iterations to an ae energy of -5427.407 eV

 Identity difference:   5.17267234911703770E-004

   ============================================================                
   | Pseudopotential Report - Date of generation  3-05-2016   |                
   ------------------------------------------------------------                
   | Element: Mg Ionic charge:  8.00 Level of theory: LDA     |                
   |                                                          |                
   |               Reference Electronic Structure             |                
   |         Orbital         Occupation         Energy        |                
   |            2p              6.000           -1.717        |                
   |            3s              2.000           -0.176        |                
   |                                                          |                
   |                 Pseudopotential Definition               |                
   |        Beta     l      e      Rc     scheme   norm       |                
   |          1      0   -0.176   1.994     qc      1         |                
   |          2      1   -1.717   1.994     qc      0         |                
   |          3      1    0.000   1.994     qc      0         |                
   |          4      1    0.250   1.994     qc      0         |                
   |         loc     2    0.000   1.605     pn      0         |                
   |                                                          |                
   | Augmentation charge Rinner = 1.405                       |                
   | Partial core correction Rc = 1.405                       |                
   ------------------------------------------------------------                
   | "2|1.6|2|1.4|6|7|8|30NH:21U:31UU:32LGG(qc=4.5)[]"        |                
   ------------------------------------------------------------                
   |      Author: Chris J. Pickard, Cambridge University      |                
   ============================================================                

 Doing a self consistent calculation for the test configuration

 Atomic calculation performed for Mg: 1s2 2s2 2p6 3s2

 Converged in 47 iterations to an ae energy of -5427.407 eV

 ---------------------------------------
 AE eigenvalue nl 10 =      -46.06264936
 AE eigenvalue nl 20 =       -2.91364591
 AE eigenvalue nl 21 =       -1.71672732
 AE eigenvalue nl 30 =       -0.17593422
 ---------------------------------------
 PS eigenvalue nl 21 =       -1.71622098
 PS eigenvalue nl 30 =       -0.17592300
 ---------------------------------------

 Atomic calculation performed for Ca: 1s2 2s2 2p6 3s2 3p6 4s2

 Converged in 44 iterations to an ae energy of -18468.058 eV

   ============================================================                
   | Pseudopotential Report - Date of generation  3-05-2016   |                
   ------------------------------------------------------------                
   | Element: Ca Ionic charge: 10.00 Level of theory: LDA     |                
   |                                                          |                
   |               Reference Electronic Structure             |                
   |         Orbital         Occupation         Energy        |                
   |            3s              2.000           -1.721        |                
   |            3p              6.000           -1.028        |                
   |            4s              2.000           -0.142        |                
   |                                                          |                
   |                 Pseudopotential Definition               |                
   |        Beta     l      e      Rc     scheme   norm       |                
   |          1      0   -1.721   2.005     qc      0         |                
   |          2      0   -0.142   2.005     qc      0         |                
   |          3      1   -1.028   2.005     qc      0         |                
   |          4      1    0.250   2.005     qc      0         |                
   |          5      2    0.000   2.005     qc      0         |                
   |          6      2    1.000   2.005     qc      0         |                
   |         loc     3    0.000   1.601     pn      0         |                
   |                                                          |                
   | Augmentation charge Rinner = 1.401                       |                
   | Partial core correction Rc = 1.401                       |                
   ------------------------------------------------------------                
   | "3|1.6|2.0|1.4|7|9|10|30U:40U:31:32U=0U=1.0"             |                
   ------------------------------------------------------------                
   |      Author: Chris J. Pickard, Cambridge University      |                
   ============================================================                

 Pseudo atomic calculation performed for O 2s2 2p4

 Converged in 30 iterations to a total energy of -431.1785 eV


 Pseudo atomic calculation performed for Mg 2p6 3s2

 Converged in 23 iterations to a total energy of -1024.5896 eV


 Pseudo atomic calculation performed for Ca 3s2 3p6 4s2

 Converged in 24 iterations to a total energy of -1000.4330 eV

 Calculation parallelised over 2 processes.
 Data is distributed by k-point(2-way)

 ************************************ Title ************************************
 MgO

 ***************************** General Parameters ******************************
  
 output verbosity                               : normal  (1)
 write checkpoint data to                       : dan_1.check
 type of calculation                            : single point energy
 stress calculation                             : on
 density difference calculation                 : off
 electron localisation func (ELF) calculation   : off
 Hirshfeld analysis                             : off
 unlimited duration calculation
 timing information                             : on
 memory usage estimate                          : on
 write final potential to formatted file        : off
 write final density to formatted file          : off
 write BibTeX reference list                    : on
  
 output         length unit                     : A
 output           mass unit                     : amu
 output           time unit                     : ps
 output         charge unit                     : e
 output         energy unit                     : eV
 output          force unit                     : eV/A
 output       velocity unit                     : A/ps
 output       pressure unit                     : GPa
 output     inv_length unit                     : 1/A
 output      frequency unit                     : cm-1
 output force constant unit                     : eV/A**2
 output         volume unit                     : A**3
 output   IR intensity unit                     : (D/A)**2/amu
 output         dipole unit                     : D
 output         efield unit                     : eV/A/e
 output        entropy unit                     : J/mol/K
  
 wavefunctions paging                           : none
 random number generator seed                   : randomised (220924850)
 data distribution                              : optimal for this architecture
 optimization strategy                          : maximize speed(+++)

 *********************** Exchange-Correlation Parameters ***********************
  
 using functional                               : Local Density Approximation
 Divergence correction                          : off
 DFT+D: Semi-empirical dispersion correction    : off

 ************************* Pseudopotential Parameters **************************
  
 pseudopotential representation                 : reciprocal space
 <beta|phi> representation                      : reciprocal space

 **************************** Basis Set Parameters *****************************
  
 plane wave basis set cut-off                   :   350.0000   eV
 size of standard grid                          :     2.0000
 size of   fine   gmax                          :    19.1691   1/A
 largest prime factor in FFT                    :          5
 finite basis set correction                    : automatic
 number of sample energies                      :          3
           sample  spacing                      :     5.0000   eV

 **************************** Electronic Parameters ****************************
  
 number of  electrons                           :  202.0    
 net charge of system                           :  0.000    
 net spin   of system                           :  0.000    
 number of  up  spins                           :  101.0    
 number of down spins                           :  101.0    
 treating system as non-spin-polarized
 number of bands                                :        121

 ********************* Electronic Minimization Parameters **********************
  
 Method: Treating system as metallic with density mixing treatment of electrons,
         and number of  SD  steps               :          1
         and number of  CG  steps               :          4
  
 total energy / atom convergence tol.           : 0.1000E-06   eV
 eigen-energy convergence tolerance             : 0.2673E-07   eV
 max force / atom convergence tol.              : ignored
 convergence tolerance window                   :          3   cycles
 max. number of SCF cycles                      :         60
 number of fixed-spin iterations                :         10
 smearing scheme                                : Gaussian
 smearing width                                 : 0.2000       eV
 Fermi energy convergence tolerance             : 0.2673E-08   eV
 periodic dipole correction                     : NONE

 ************************** Density Mixing Parameters **************************
  
 density-mixing scheme                          : Pulay
 max. length of mixing history                  :         30
 charge density mixing amplitude                : 0.8000    
 cut-off energy for mixing                      :  350.0       eV
 charge density mixing g-vector                 :  1.500       1/A

 *********************** Population Analysis Parameters ************************
  
 Population analysis with cutoff                :  3.000       A

 *******************************************************************************
  

                           -------------------------------
                                      Unit Cell
                           -------------------------------
        Real Lattice(A)                      Reciprocal Lattice(1/A)
   8.4000000   0.0000000   0.0000000        0.7479983   0.0000000   0.0000000
   0.0000000   8.4000000   0.0000000        0.0000000   0.7479983   0.0000000
   0.0000000   0.0000000   8.4000000        0.0000000   0.0000000   0.7479983

                       Lattice parameters(A)       Cell Angles
                    a =    8.400000          alpha =   90.000000
                    b =    8.400000          beta  =   90.000000
                    c =    8.400000          gamma =   90.000000

                       Current cell volume =  592.704000       A**3

                           -------------------------------
                                     Cell Contents
                           -------------------------------
                         Total number of ions in cell =   27
                      Total number of species in cell =    3
                        Max number of any one species =   13

            xxxxxxxxxxxxxxxxxxxxxxxxxxxxxxxxxxxxxxxxxxxxxxxxxxxxxxxxxxxx
            x  Element    Atom        Fractional coordinates of atoms  x
            x            Number           u          v          w      x
            x----------------------------------------------------------x
            x  O            1         0.375000   0.000000   0.000000   x
            x  O            2         0.000000   0.375000   0.000000   x
            x  O            3         0.750000   0.375000   0.000000   x
            x  O            4         0.375000   0.750000   0.000000   x
            x  O            5         0.000000   0.000000   0.375000   x
            x  O            6         0.750000   0.000000   0.375000   x
            x  O            7         0.375000   0.375000   0.375000   x
            x  O            8         0.000000   0.750000   0.375000   x
            x  O            9         0.750000   0.750000   0.375000   x
            x  O           10         0.375000   0.000000   0.750000   x
            x  O           11         0.000000   0.375000   0.750000   x
            x  O           12         0.750000   0.375000   0.750000   x
            x  O           13         0.375000   0.750000   0.750000   x
            x  Mg           1         0.000000   0.000000   0.000000   x
            x  Mg           2         0.750000   0.000000   0.000000   x
            x  Mg           3         0.375000   0.375000   0.000000   x
            x  Mg           4         0.000000   0.750000   0.000000   x
            x  Mg           5         0.750000   0.750000   0.000000   x
            x  Mg           6         0.000000   0.375000   0.375000   x
            x  Mg           7         0.750000   0.375000   0.375000   x
            x  Mg           8         0.375000   0.750000   0.375000   x
            x  Ca           1         0.375000   0.000000   0.375000   x
            x  Ca           2         0.000000   0.000000   0.750000   x
            x  Ca           3         0.750000   0.000000   0.750000   x
            x  Ca           4         0.375000   0.375000   0.750000   x
            x  Ca           5         0.000000   0.750000   0.750000   x
            x  Ca           6         0.750000   0.750000   0.750000   x
            xxxxxxxxxxxxxxxxxxxxxxxxxxxxxxxxxxxxxxxxxxxxxxxxxxxxxxxxxxxx


                         No user defined ionic velocities

                           -------------------------------
                                   Details of Species
                           -------------------------------

                               Mass of species in AMU
                                    O   15.9994000
                                    Mg   24.3050000
                                    Ca   40.0780000

                          Electric Quadrupole Moment (Barn)
                                    O   -0.0255800 Isotope 17
                                    Mg    0.1994000 Isotope 25
                                    Ca   -0.0408000 Isotope 43

                          Files used for pseudopotentials:
                                    O Pseudopotential generated on-the-fly
                                    Mg Pseudopotential generated on-the-fly
                                    Ca Pseudopotential generated on-the-fly

                           -------------------------------
                              k-Points For BZ Sampling
                           -------------------------------
                       MP grid size for SCF calculation is  3  3  3
                         Number of kpoints used =          10

             +++++++++++++++++++++++++++++++++++++++++++++++++++++++
             +  Number       Fractional coordinates        Weight  +
             +-----------------------------------------------------+
             +     1  -0.333333  -0.333333   0.000000   0.1481481  +
             +     2  -0.333333   0.000000  -0.333333   0.1481481  +
             +     3  -0.333333   0.000000   0.000000   0.0740741  +
             +     4   0.000000   0.000000  -0.333333   0.0740741  +
             +     5   0.000000   0.000000   0.000000   0.0370370  +
             +     6   0.000000   0.333333  -0.333333   0.0740741  +
             +     7   0.000000   0.333333   0.000000   0.0740741  +
             +     8   0.000000   0.333333   0.333333   0.0740741  +
             +     9   0.333333  -0.333333  -0.333333   0.1481481  +
             +    10   0.333333   0.333333  -0.333333   0.1481481  +
             +++++++++++++++++++++++++++++++++++++++++++++++++++++++

                           -------------------------------
                               Symmetry and Constraints
                           -------------------------------

                      Number of symmetry operations   =           2
                      Number of ionic constraints     =           3
                      Maximum deviation from symmetry =  0.00000         ANG
               Point group of crystal =     3: Cs, m, m
           Set iprint > 1 for details on symmetry rotations/translations

                          Centre of mass is constrained
             Set iprint > 1 for details of linear ionic constraints

                         Number of cell constraints= 5
                         Cell constraints are:  1 1 1 0 0 0

                         External pressure/stress (GPa)
                          0.00000   0.00000   0.00000
                                    0.00000   0.00000
                                              0.00000
  
+---------------- MEMORY AND SCRATCH DISK ESTIMATES PER NODE -----------------+
|                                                     Memory          Disk    |
| Model and support data                              525.8 MB         0.0 MB |
| Electronic energy minimisation requirements         199.7 MB         0.0 MB |
|                                               ----------------------------- |
| Approx. total storage required per node             725.5 MB         0.0 MB |
|                                                                             |
| Requirements will fluctuate during execution and may exceed these estimates |
+-----------------------------------------------------------------------------+
Calculating finite basis set correction with  3 cut-off energies.
Calculating total energy with cut-off of  340.000eV.
------------------------------------------------------------------------ <-- SCF
SCF loop      Energy           Fermi           Energy gain       Timer   <-- SCF
                               energy          per atom          (sec)   <-- SCF
------------------------------------------------------------------------ <-- SCF
Initial  -1.72824020E+004  0.00000000E+000                        46.24  <-- SCF
      1  -1.89742262E+004  4.04200281E+000   6.26601539E+001     167.43  <-- SCF
      2  -1.98347496E+004  1.98738119E-001   3.18712362E+001     256.23  <-- SCF
      3  -1.98959722E+004  1.07715395E-001   2.26750694E+000     345.16  <-- SCF
      4  -1.98975750E+004  2.74372872E+000   5.93623091E-002     465.40  <-- SCF
      5  -1.98831444E+004  2.34468534E+000  -5.34466595E-001     597.51  <-- SCF
      6  -1.98744160E+004  1.76614205E+000  -3.23274869E-001     705.70  <-- SCF
      7  -1.98672209E+004  1.62149358E+000  -2.66487145E-001     851.70  <-- SCF
      8  -1.98673941E+004  1.70957402E+000   6.41592323E-003    1079.06  <-- SCF
      9  -1.98665818E+004  1.72465180E+000  -3.00848973E-002    1201.86  <-- SCF
     10  -1.98662461E+004  1.68392205E+000  -1.24347650E-002    1356.91  <-- SCF
     11  -1.98663511E+004  1.66849091E+000   3.89159623E-003    1488.51  <-- SCF
     12  -1.98661609E+004  1.69063027E+000  -7.04404911E-003    1618.54  <-- SCF
     13  -1.98661634E+004  1.70190870E+000   9.19999234E-005    1745.13  <-- SCF
     14  -1.98661470E+004  1.69885683E+000  -6.06730483E-004    1858.36  <-- SCF
     15  -1.98661471E+004  1.70080373E+000   3.19565340E-006    1955.63  <-- SCF
     16  -1.98661445E+004  1.69809035E+000  -9.64875128E-005    2032.79  <-- SCF
     17  -1.98661441E+004  1.69776456E+000  -1.45546417E-005    2272.17  <-- SCF
     18  -1.98661439E+004  1.69898115E+000  -8.19983772E-006    2389.11  <-- SCF
     19  -1.98661439E+004  1.69920396E+000   6.26563771E-007    2520.31  <-- SCF
     20  -1.98661439E+004  1.69912704E+000   8.09563702E-008    2751.72  <-- SCF
     21  -1.98661439E+004  1.69915471E+000  -4.47889003E-007    2872.67  <-- SCF
     22  -1.98661439E+004  1.69915572E+000   1.46554165E-008    3124.47  <-- SCF
     23  -1.98661439E+004  1.69913616E+000  -4.92909818E-009    3269.19  <-- SCF
------------------------------------------------------------------------ <-- SCF
 
Final energy, E             =  -19865.65333238     eV
Final free energy (E-TS)    =  -19866.14391583     eV
(energies not corrected for finite basis set)
 
NB est. 0K energy (E-0.5TS)      =  -19865.89862410     eV
 
Calculating total energy with cut-off of  345.000eV.
------------------------------------------------------------------------ <-- SCF
SCF loop      Energy           Fermi           Energy gain       Timer   <-- SCF
                               energy          per atom          (sec)   <-- SCF
------------------------------------------------------------------------ <-- SCF
Initial  -1.98656533E+004  0.00000000E+000                      3325.05  <-- SCF
      1  -1.98678889E+004  1.67950069E+000   8.27981481E-002    3385.44  <-- SCF
      2  -1.98678925E+004  1.67951251E+000   1.32316710E-004    3462.54  <-- SCF
      3  -1.98679950E+004  1.73635935E+000   3.79799852E-003    3549.94  <-- SCF
      4  -1.98678900E+004  1.70258839E+000  -3.88815399E-003    3631.64  <-- SCF
      5  -1.98678858E+004  1.69927747E+000  -1.56286997E-004    3893.41  <-- SCF
      6  -1.98678861E+004  1.69385995E+000   1.29073983E-005    4009.18  <-- SCF
      7  -1.98678855E+004  1.69368051E+000  -2.23342300E-005    4111.27  <-- SCF
      8  -1.98678855E+004  1.69537826E+000  -1.31332304E-006    4271.91  <-- SCF
      9  -1.98678854E+004  1.69599665E+000  -5.80150972E-006    4376.18  <-- SCF
     10  -1.98678854E+004  1.69609099E+000   7.66461133E-007    4448.68  <-- SCF
     11  -1.98678854E+004  1.69618886E+000  -2.42123559E-007    4623.79  <-- SCF
     12  -1.98678854E+004  1.69619245E+000  -7.56441269E-008    4693.21  <-- SCF
     13  -1.98678854E+004  1.69618094E+000   4.56831845E-008    4801.28  <-- SCF
------------------------------------------------------------------------ <-- SCF
 
Final energy, E             =  -19867.39411560     eV
Final free energy (E-TS)    =  -19867.88536679     eV
(energies not corrected for finite basis set)
 
NB est. 0K energy (E-0.5TS)      =  -19867.63974120     eV
 
Calculating total energy with cut-off of  350.000eV.
------------------------------------------------------------------------ <-- SCF
SCF loop      Energy           Fermi           Energy gain       Timer   <-- SCF
                               energy          per atom          (sec)   <-- SCF
------------------------------------------------------------------------ <-- SCF
Initial  -1.98673941E+004  0.00000000E+000                      4943.47  <-- SCF
      1  -1.98696788E+004  1.67666999E+000   8.46199635E-002    5025.44  <-- SCF
      2  -1.98696824E+004  1.67667483E+000   1.33078833E-004    5114.96  <-- SCF
      3  -1.98698223E+004  1.73291060E+000   5.17967376E-003    5187.21  <-- SCF
      4  -1.98696810E+004  1.70291868E+000  -5.23175235E-003    5268.78  <-- SCF
      5  -1.98696741E+004  1.69641550E+000  -2.55188788E-004    5479.77  <-- SCF
      6  -1.98696751E+004  1.69097802E+000   3.64033168E-005    5581.53  <-- SCF
      7  -1.98696743E+004  1.69072543E+000  -3.00926680E-005    5657.96  <-- SCF
      8  -1.98696743E+004  1.69246257E+000  -9.22450477E-007    5784.04  <-- SCF
      9  -1.98696741E+004  1.69309271E+000  -7.90086718E-006    5887.38  <-- SCF
     10  -1.98696741E+004  1.69328511E+000   9.26788358E-007    5993.20  <-- SCF
     11  -1.98696741E+004  1.69331069E+000  -4.42289286E-007    6103.31  <-- SCF
     12  -1.98696741E+004  1.69327376E+000   1.92286389E-008    6232.13  <-- SCF
     13  -1.98696741E+004  1.69333227E+000   1.46818838E-008    6307.63  <-- SCF
------------------------------------------------------------------------ <-- SCF
 
Final energy, E             =  -19869.17920917     eV
Final free energy (E-TS)    =  -19869.67407430     eV
(energies not corrected for finite basis set)
 
NB est. 0K energy (E-0.5TS)      =  -19869.42664173     eV
 
 For future reference: finite basis dEtot/dlog(Ecut) =    -123.754595eV
 Total energy corrected for finite basis set =  -19869.664234 eV

 ***************** Symmetrised Forces *****************
 *                                                    *
 *            Cartesian components (eV/A)             *
 * -------------------------------------------------- *
 *                   x            y            z      *
 *                                                    *
 * O         1      0.00000     -0.51916     -0.30243 *
 * O         2     -0.47691     -0.00070     -1.06197 *
 * O         3      0.47691     -0.00070     -1.06197 *
 * O         4      0.00000      0.60907     -0.69475 *
 * O         5     -0.03241     -0.82309      0.25444 *
 * O         6      0.03241     -0.82309      0.25444 *
 * O         7      0.00000     -0.45821      0.46391 *
 * O         8     -0.43979      0.90884      0.24148 *
 * O         9      0.43979      0.90884      0.24148 *
 * O        10      0.00000     -0.02220      0.06903 *
 * O        11      0.04610     -0.00928      0.83373 *
 * O        12     -0.04610     -0.00928      0.83373 *
 * O        13      0.00000      0.09792      0.47420 *
 * Mg        1      5.93633      5.96100      6.17748 *
 * Mg        2     -5.93633      5.96100      6.17748 *
 * Mg        3      0.00000      0.02773      8.73329 *
 * Mg        4      5.97718     -5.96031      6.21833 *
 * Mg        5     -5.97718     -5.96031      6.21833 *
 * Mg        6      6.31818      0.01930     -0.05532 *
 * Mg        7     -6.31818      0.01930     -0.05532 *
 * Mg        8      0.00000     -8.76337     -0.03258 *
 * Ca        1      0.00000      8.79747     -0.14137 *
 * Ca        2      5.65490      5.68103     -6.22836 *
 * Ca        3     -5.65490      5.68103     -6.22836 *
 * Ca        4      0.00000      0.03751     -8.76962 *
 * Ca        5      5.69237     -5.68016     -6.27965 *
 * Ca        6     -5.69237     -5.68016     -6.27965 *
 *                                                    *
 ******************************************************

 *********** Symmetrised Stress Tensor ***********
 *                                               *
 *          Cartesian components (GPa)           *
 * --------------------------------------------- *
 *             x             y             z     *
 *                                               *
 *  x     -0.938245      0.000000      0.000000  *
 *  y      0.000000     -2.533306     -0.062620  *
 *  z      0.000000     -0.062620     -2.813924  *
 *                                               *
 *  Pressure:    2.0952                          *
 *                                               *
 *************************************************

 Pseudo atomic calculation performed for O 2s2 2p4

 Converged in 30 iterations to a total energy of -431.1785 eV


 Pseudo atomic calculation performed for Mg 2p6 3s2

 Converged in 23 iterations to a total energy of -1024.5896 eV


 Pseudo atomic calculation performed for Ca 3s2 3p6 4s2

 Converged in 24 iterations to a total energy of -1000.4330 eV

Charge spilling parameter for spin component 1 = 0.41%

     Atomic Populations (Mulliken)
     -----------------------------
Species   Ion     s      p      d      f     Total  Charge (e)
==============================================================
  O        1     1.98   4.45   0.00   0.00   6.43    -0.43
  O        2     1.98   4.41   0.00   0.00   6.39    -0.39
  O        3     1.98   4.41   0.00   0.00   6.39    -0.39
  O        4     1.98   4.41   0.00   0.00   6.39    -0.39
  O        5     1.98   4.49   0.00   0.00   6.47    -0.47
  O        6     1.98   4.49   0.00   0.00   6.47    -0.47
  O        7     1.96   4.81   0.00   0.00   6.77    -0.77
  O        8     1.98   4.45   0.00   0.00   6.43    -0.43
  O        9     1.98   4.45   0.00   0.00   6.43    -0.43
  O       10     1.98   4.56   0.00   0.00   6.54    -0.54
  O       11     1.98   4.52   0.00   0.00   6.50    -0.50
  O       12     1.98   4.52   0.00   0.00   6.50    -0.50
  O       13     1.98   4.52   0.00   0.00   6.50    -0.50
  Mg       1     1.10   6.59   0.00   0.00   7.69     0.31
  Mg       2     1.10   6.59   0.00   0.00   7.69     0.31
  Mg       3     1.17   6.67   0.00   0.00   7.84     0.16
  Mg       4     1.10   6.56   0.00   0.00   7.66     0.34
  Mg       5     1.10   6.56   0.00   0.00   7.66     0.34
  Mg       6     0.89   6.71   0.00   0.00   7.60     0.40
  Mg       7     0.89   6.71   0.00   0.00   7.60     0.40
  Mg       8     1.18   6.63   0.00   0.00   7.81     0.19
  Ca       1     2.31   5.99   0.65   0.00   8.94     1.06
  Ca       2     2.10   5.92   1.59   0.00   9.61     0.39
  Ca       3     2.10   5.92   1.59   0.00   9.61     0.39
  Ca       4     2.32   5.99   0.65   0.00   8.96     1.04
  Ca       5     2.07   5.92   1.59   0.00   9.57     0.43
  Ca       6     2.07   5.92   1.59   0.00   9.57     0.43
==============================================================

            Bond              Population      Length (A)
============================================================
         Ca 5 -- Ca 6              0.01        2.10000
         Ca 3 -- Ca 6             -0.02        2.10000
         Ca 2 -- Ca 5             -0.02        2.10000
         Ca 2 -- Ca 3             -0.01        2.10000
         Mg 8 -- Ca 1             -0.45        2.10000
         Mg 6 -- Mg 7              0.73        2.10000
         Mg 5 -- Ca 6             -0.27        2.10000
         Mg 4 -- Ca 5             -0.27        2.10000
         Mg 4 -- Mg 5              0.32        2.10000
         Mg 3 -- Ca 4             -0.44        2.10000
         Mg 2 -- Ca 3             -0.25        2.10000
         Mg 2 -- Mg 5              0.31        2.10000
         Mg 1 -- Ca 2             -0.25        2.10000
         Mg 1 -- Mg 4              0.31        2.10000
         Mg 1 -- Mg 2              0.31        2.10000
         O 11 -- O 12              0.04        2.10000
         O 10 -- O 13              0.04        2.10000
         O 8  -- O 9               0.07        2.10000
         O 6  -- O 9               0.07        2.10000
         O 5  -- O 8               0.07        2.10000
         O 5  -- O 6               0.04        2.10000
         O 4  -- O 13              0.07        2.10000
         O 3  -- O 12              0.08        2.10000
         O 2  -- O 11              0.08        2.10000
         O 2  -- O 3               0.08        2.10000
         O 1  -- O 10              0.05        2.10000
         O 1  -- O 4               0.08        2.10000
         Ca 3 -- Ca 5              0.13        2.96985
         Ca 2 -- Ca 6              0.13        2.96985
         Mg 5 -- Ca 5             -0.08        2.96985
         Mg 5 -- Ca 3             -0.07        2.96985
         Mg 4 -- Ca 6             -0.08        2.96985
         Mg 4 -- Ca 2             -0.07        2.96985
         Mg 2 -- Ca 6             -0.08        2.96985
         Mg 2 -- Ca 2             -0.09        2.96985
         Mg 2 -- Mg 4             -1.74        2.96985
         Mg 1 -- Ca 5             -0.08        2.96985
         Mg 1 -- Ca 3             -0.09        2.96985
         Mg 1 -- Mg 5             -1.74        2.96985
         O 6  -- O 8              -0.03        2.96985
         O 5  -- O 9              -0.03        2.96985
         O 4  -- O 10             -0.04        2.96985
         O 3  -- O 11             -0.03        2.96985
         O 2  -- O 12             -0.03        2.96985
         O 1  -- O 13             -0.03        2.96985
============================================================


Writing model to dan_1.check

Writing analysis data to dan_1.castep_bin
 
 A BibTeX formatted list of references used in this run has been written to 
 dan_1.bib
 
Initialisation time =     34.05 s
Calculation time    =   6559.58 s
Finalisation time   =      6.98 s
Total time          =   6600.61 s
Peak Memory Use     = 1012988 kB
  
Overall parallel efficiency rating: Excellent (96%)                             
  
Data was distributed by:-
k-point (2-way); efficiency rating: Excellent (96%)                             
