 +-------------------------------------------------+
 |                                                 |
 |      CCC   AA    SSS  TTTTT  EEEEE  PPPP        |
 |     C     A  A  S       T    E      P   P       |
 |     C     AAAA   SS     T    EEE    PPPP        |
 |     C     A  A     S    T    E      P           |
 |      CCC  A  A  SSS     T    EEEEE  P           |
 |                                                 |
 +-------------------------------------------------+
 |                                                 |
 | Welcome to Academic Release CASTEP version 6.1  |
 | Ab Initio Total Energy Program                  |
 |                                                 |
 | Authors:                                        |
 | M. Segall, M. Probert, C. Pickard, P. Hasnip,   |
 | S. Clark, K. Refson, J. R. Yates, M. Payne      |
 |                                                 |
 | Contributors:                                   |
 | P. Lindan, P. Haynes, J. White, V. Milman,      |
 | N. Govind, M. Gibson, P. Tulip, V. Cocula,      |
 | B. Montanari, D. Quigley, M. Glover,            |
 | L. Bernasconi, A. Perlov, M. Plummer,           |
 | E. McNellis, J. Meyer, J. Gale, D. Jochym       |
 | J. Aarons, B. Walker, R. Gillen                 |
 |                                                 |
 | Copyright (c) 2000 - 2012                       |
 |                                                 |
 |     Distributed under the terms of an           |
 |     Agreement between the United Kingdom        |
 |     Car-Parrinello (UKCP) Consortium,           |
 |     Daresbury Laboratory and Accelrys, Inc.     |
 |                                                 |
 | Please cite                                     |
 |                                                 |
 |     "First principles methods using CASTEP"     |
 |                                                 |
 |         Zeitschrift fuer Kristallographie       |
 |           220(5-6) pp. 567-570 (2005)           |
 |                                                 |
 | S. J. Clark, M. D. Segall, C. J. Pickard,       |
 | P. J. Hasnip, M. J. Probert, K. Refson,         |
 | M. C. Payne                                     |
 |                                                 |
 |       in all publications arising from          |
 |              your use of CASTEP                 |
 |                                                 |
 +-------------------------------------------------+


 Compiled for linux_x86_64_gfortran on Wed Nov 21 15:08:09 2012
 from source code version eaed21d6e002+  2012-10-31
 using fast optimisation, fftw3 FFTs and openblas LAPACK and BLAS.


 Atomic calculation performed for O: 1s2 2s2 2p4

 Converged in 60 iterations to an ae energy of -2027.926 eV

   ============================================================                
   | Pseudopotential Report - Date of generation  3-05-2016   |                
   ------------------------------------------------------------                
   | Element: O Ionic charge:  6.00 Level of theory: LDA      |                
   |                                                          |                
   |               Reference Electronic Structure             |                
   |         Orbital         Occupation         Energy        |                
   |            2s              2.000           -0.873        |                
   |            2p              4.000           -0.338        |                
   |                                                          |                
   |                 Pseudopotential Definition               |                
   |        Beta     l      e      Rc     scheme   norm       |                
   |          1      0   -0.873   1.300     qc      0         |                
   |          2      0    0.250   1.300     qc      0         |                
   |          3      1   -0.338   1.300     qc      0         |                
   |          4      1    0.250   1.300     qc      0         |                
   |         loc     2    0.000   1.004     pn      0         |                
   |                                                          |                
   | Augmentation charge Rinner = 0.701                       |                
   | Partial core correction Rc = 0.701                       |                
   ------------------------------------------------------------                
   | "2|1.0|1.3|0.7|13|16|18|20:21(qc=7)"                     |                
   ------------------------------------------------------------                
   |      Author: Chris J. Pickard, Cambridge University      |                
   ============================================================                

 Atomic calculation performed for Mg: 1s2 2s2 2p6 3s2

 Converged in 47 iterations to an ae energy of -5427.407 eV

 Identity difference:   5.17267234911703770E-004

   ============================================================                
   | Pseudopotential Report - Date of generation  3-05-2016   |                
   ------------------------------------------------------------                
   | Element: Mg Ionic charge:  8.00 Level of theory: LDA     |                
   |                                                          |                
   |               Reference Electronic Structure             |                
   |         Orbital         Occupation         Energy        |                
   |            2p              6.000           -1.717        |                
   |            3s              2.000           -0.176        |                
   |                                                          |                
   |                 Pseudopotential Definition               |                
   |        Beta     l      e      Rc     scheme   norm       |                
   |          1      0   -0.176   1.994     qc      1         |                
   |          2      1   -1.717   1.994     qc      0         |                
   |          3      1    0.000   1.994     qc      0         |                
   |          4      1    0.250   1.994     qc      0         |                
   |         loc     2    0.000   1.605     pn      0         |                
   |                                                          |                
   | Augmentation charge Rinner = 1.405                       |                
   | Partial core correction Rc = 1.405                       |                
   ------------------------------------------------------------                
   | "2|1.6|2|1.4|6|7|8|30NH:21U:31UU:32LGG(qc=4.5)[]"        |                
   ------------------------------------------------------------                
   |      Author: Chris J. Pickard, Cambridge University      |                
   ============================================================                

 Doing a self consistent calculation for the test configuration

 Atomic calculation performed for Mg: 1s2 2s2 2p6 3s2

 Converged in 47 iterations to an ae energy of -5427.407 eV

 ---------------------------------------
 AE eigenvalue nl 10 =      -46.06264936
 AE eigenvalue nl 20 =       -2.91364591
 AE eigenvalue nl 21 =       -1.71672732
 AE eigenvalue nl 30 =       -0.17593422
 ---------------------------------------
 PS eigenvalue nl 21 =       -1.71622098
 PS eigenvalue nl 30 =       -0.17592300
 ---------------------------------------

 Atomic calculation performed for Ca: 1s2 2s2 2p6 3s2 3p6 4s2

 Converged in 44 iterations to an ae energy of -18468.058 eV

   ============================================================                
   | Pseudopotential Report - Date of generation  3-05-2016   |                
   ------------------------------------------------------------                
   | Element: Ca Ionic charge: 10.00 Level of theory: LDA     |                
   |                                                          |                
   |               Reference Electronic Structure             |                
   |         Orbital         Occupation         Energy        |                
   |            3s              2.000           -1.721        |                
   |            3p              6.000           -1.028        |                
   |            4s              2.000           -0.142        |                
   |                                                          |                
   |                 Pseudopotential Definition               |                
   |        Beta     l      e      Rc     scheme   norm       |                
   |          1      0   -1.721   2.005     qc      0         |                
   |          2      0   -0.142   2.005     qc      0         |                
   |          3      1   -1.028   2.005     qc      0         |                
   |          4      1    0.250   2.005     qc      0         |                
   |          5      2    0.000   2.005     qc      0         |                
   |          6      2    1.000   2.005     qc      0         |                
   |         loc     3    0.000   1.601     pn      0         |                
   |                                                          |                
   | Augmentation charge Rinner = 1.401                       |                
   | Partial core correction Rc = 1.401                       |                
   ------------------------------------------------------------                
   | "3|1.6|2.0|1.4|7|9|10|30U:40U:31:32U=0U=1.0"             |                
   ------------------------------------------------------------                
   |      Author: Chris J. Pickard, Cambridge University      |                
   ============================================================                

 Pseudo atomic calculation performed for O 2s2 2p4

 Converged in 30 iterations to a total energy of -431.1785 eV


 Pseudo atomic calculation performed for Mg 2p6 3s2

 Converged in 23 iterations to a total energy of -1024.5896 eV


 Pseudo atomic calculation performed for Ca 3s2 3p6 4s2

 Converged in 24 iterations to a total energy of -1000.4330 eV

 Calculation parallelised over 2 processes.
 Data is distributed by k-point(2-way)

 ************************************ Title ************************************
 MgO

 ***************************** General Parameters ******************************
  
 output verbosity                               : normal  (1)
 write checkpoint data to                       : ol_3.check
 type of calculation                            : single point energy
 stress calculation                             : on
 density difference calculation                 : off
 electron localisation func (ELF) calculation   : off
 Hirshfeld analysis                             : off
 unlimited duration calculation
 timing information                             : on
 memory usage estimate                          : on
 write final potential to formatted file        : off
 write final density to formatted file          : off
 write BibTeX reference list                    : on
  
 output         length unit                     : A
 output           mass unit                     : amu
 output           time unit                     : ps
 output         charge unit                     : e
 output         energy unit                     : eV
 output          force unit                     : eV/A
 output       velocity unit                     : A/ps
 output       pressure unit                     : GPa
 output     inv_length unit                     : 1/A
 output      frequency unit                     : cm-1
 output force constant unit                     : eV/A**2
 output         volume unit                     : A**3
 output   IR intensity unit                     : (D/A)**2/amu
 output         dipole unit                     : D
 output         efield unit                     : eV/A/e
 output        entropy unit                     : J/mol/K
  
 wavefunctions paging                           : none
 random number generator seed                   : randomised (215939763)
 data distribution                              : optimal for this architecture
 optimization strategy                          : maximize speed(+++)

 *********************** Exchange-Correlation Parameters ***********************
  
 using functional                               : Local Density Approximation
 Divergence correction                          : off
 DFT+D: Semi-empirical dispersion correction    : off

 ************************* Pseudopotential Parameters **************************
  
 pseudopotential representation                 : reciprocal space
 <beta|phi> representation                      : reciprocal space

 **************************** Basis Set Parameters *****************************
  
 plane wave basis set cut-off                   :   350.0000   eV
 size of standard grid                          :     2.0000
 size of   fine   gmax                          :    19.1691   1/A
 largest prime factor in FFT                    :          5
 finite basis set correction                    : automatic
 number of sample energies                      :          3
           sample  spacing                      :     5.0000   eV

 **************************** Electronic Parameters ****************************
  
 number of  electrons                           :  206.0    
 net charge of system                           :  0.000    
 net spin   of system                           :  0.000    
 number of  up  spins                           :  103.0    
 number of down spins                           :  103.0    
 treating system as non-spin-polarized
 number of bands                                :        124

 ********************* Electronic Minimization Parameters **********************
  
 Method: Treating system as metallic with density mixing treatment of electrons,
         and number of  SD  steps               :          1
         and number of  CG  steps               :          4
  
 total energy / atom convergence tol.           : 0.1000E-06   eV
 eigen-energy convergence tolerance             : 0.2621E-07   eV
 max force / atom convergence tol.              : ignored
 convergence tolerance window                   :          3   cycles
 max. number of SCF cycles                      :         60
 number of fixed-spin iterations                :         10
 smearing scheme                                : Gaussian
 smearing width                                 : 0.2000       eV
 Fermi energy convergence tolerance             : 0.2621E-08   eV
 periodic dipole correction                     : NONE

 ************************** Density Mixing Parameters **************************
  
 density-mixing scheme                          : Pulay
 max. length of mixing history                  :         30
 charge density mixing amplitude                : 0.8000    
 cut-off energy for mixing                      :  350.0       eV
 charge density mixing g-vector                 :  1.500       1/A

 *********************** Population Analysis Parameters ************************
  
 Population analysis with cutoff                :  3.000       A

 *******************************************************************************
  

                           -------------------------------
                                      Unit Cell
                           -------------------------------
        Real Lattice(A)                      Reciprocal Lattice(1/A)
   8.4000000   0.0000000   0.0000000        0.7479983   0.0000000   0.0000000
   0.0000000   8.4000000   0.0000000        0.0000000   0.7479983   0.0000000
   0.0000000   0.0000000   8.4000000        0.0000000   0.0000000   0.7479983

                       Lattice parameters(A)       Cell Angles
                    a =    8.400000          alpha =   90.000000
                    b =    8.400000          beta  =   90.000000
                    c =    8.400000          gamma =   90.000000

                       Current cell volume =  592.704000       A**3

                           -------------------------------
                                     Cell Contents
                           -------------------------------
                         Total number of ions in cell =   27
                      Total number of species in cell =    3
                        Max number of any one species =   13

            xxxxxxxxxxxxxxxxxxxxxxxxxxxxxxxxxxxxxxxxxxxxxxxxxxxxxxxxxxxx
            x  Element    Atom        Fractional coordinates of atoms  x
            x            Number           u          v          w      x
            x----------------------------------------------------------x
            x  O            1         0.375000   0.000000   0.000000   x
            x  O            2         0.000000   0.375000   0.000000   x
            x  O            3         0.750000   0.375000   0.000000   x
            x  O            4         0.375000   0.750000   0.000000   x
            x  O            5         0.000000   0.000000   0.375000   x
            x  O            6         0.750000   0.000000   0.375000   x
            x  O            7         0.375000   0.375000   0.375000   x
            x  O            8         0.000000   0.750000   0.375000   x
            x  O            9         0.750000   0.750000   0.375000   x
            x  O           10         0.375000   0.000000   0.750000   x
            x  O           11         0.000000   0.375000   0.750000   x
            x  O           12         0.750000   0.375000   0.750000   x
            x  O           13         0.375000   0.750000   0.750000   x
            x  Mg           1         0.000000   0.000000   0.000000   x
            x  Mg           2         0.750000   0.000000   0.000000   x
            x  Mg           3         0.375000   0.375000   0.000000   x
            x  Mg           4         0.000000   0.750000   0.000000   x
            x  Mg           5         0.750000   0.750000   0.000000   x
            x  Mg           6         0.375000   0.750000   0.375000   x
            x  Ca           1         0.375000   0.000000   0.375000   x
            x  Ca           2         0.000000   0.375000   0.375000   x
            x  Ca           3         0.750000   0.375000   0.375000   x
            x  Ca           4         0.000000   0.000000   0.750000   x
            x  Ca           5         0.750000   0.000000   0.750000   x
            x  Ca           6         0.375000   0.375000   0.750000   x
            x  Ca           7         0.000000   0.750000   0.750000   x
            x  Ca           8         0.750000   0.750000   0.750000   x
            xxxxxxxxxxxxxxxxxxxxxxxxxxxxxxxxxxxxxxxxxxxxxxxxxxxxxxxxxxxx


                         No user defined ionic velocities

                           -------------------------------
                                   Details of Species
                           -------------------------------

                               Mass of species in AMU
                                    O   15.9994000
                                    Mg   24.3050000
                                    Ca   40.0780000

                          Electric Quadrupole Moment (Barn)
                                    O   -0.0255800 Isotope 17
                                    Mg    0.1994000 Isotope 25
                                    Ca   -0.0408000 Isotope 43

                          Files used for pseudopotentials:
                                    O Pseudopotential generated on-the-fly
                                    Mg Pseudopotential generated on-the-fly
                                    Ca Pseudopotential generated on-the-fly

                           -------------------------------
                              k-Points For BZ Sampling
                           -------------------------------
                       MP grid size for SCF calculation is  3  3  3
                         Number of kpoints used =          10

             +++++++++++++++++++++++++++++++++++++++++++++++++++++++
             +  Number       Fractional coordinates        Weight  +
             +-----------------------------------------------------+
             +     1  -0.333333  -0.333333   0.000000   0.1481481  +
             +     2  -0.333333   0.000000  -0.333333   0.1481481  +
             +     3  -0.333333   0.000000   0.000000   0.0740741  +
             +     4   0.000000   0.000000  -0.333333   0.0740741  +
             +     5   0.000000   0.000000   0.000000   0.0370370  +
             +     6   0.000000   0.333333  -0.333333   0.0740741  +
             +     7   0.000000   0.333333   0.000000   0.0740741  +
             +     8   0.000000   0.333333   0.333333   0.0740741  +
             +     9   0.333333  -0.333333  -0.333333   0.1481481  +
             +    10   0.333333   0.333333  -0.333333   0.1481481  +
             +++++++++++++++++++++++++++++++++++++++++++++++++++++++

                           -------------------------------
                               Symmetry and Constraints
                           -------------------------------

                      Number of symmetry operations   =           2
                      Number of ionic constraints     =           3
                      Maximum deviation from symmetry =  0.00000         ANG
               Point group of crystal =     3: Cs, m, m
           Set iprint > 1 for details on symmetry rotations/translations

                          Centre of mass is constrained
             Set iprint > 1 for details of linear ionic constraints

                         Number of cell constraints= 5
                         Cell constraints are:  1 1 1 0 0 0

                         External pressure/stress (GPa)
                          0.00000   0.00000   0.00000
                                    0.00000   0.00000
                                              0.00000
  
+---------------- MEMORY AND SCRATCH DISK ESTIMATES PER NODE -----------------+
|                                                     Memory          Disk    |
| Model and support data                              530.2 MB         0.0 MB |
| Electronic energy minimisation requirements         204.7 MB         0.0 MB |
|                                               ----------------------------- |
| Approx. total storage required per node             734.9 MB         0.0 MB |
|                                                                             |
| Requirements will fluctuate during execution and may exceed these estimates |
+-----------------------------------------------------------------------------+
Calculating finite basis set correction with  3 cut-off energies.
Calculating total energy with cut-off of  340.000eV.
------------------------------------------------------------------------ <-- SCF
SCF loop      Energy           Fermi           Energy gain       Timer   <-- SCF
                               energy          per atom          (sec)   <-- SCF
------------------------------------------------------------------------ <-- SCF
Initial  -1.72851422E+004  0.00000000E+000                        63.02  <-- SCF
      1  -1.89607864E+004  4.40149194E+000   6.20608985E+001     195.31  <-- SCF
      2  -1.97925580E+004  7.53851242E-001   3.08063547E+001     291.40  <-- SCF
      3  -1.98484435E+004  5.54366142E-001   2.06983194E+000     384.08  <-- SCF
      4  -1.98529823E+004  2.94049540E+000   1.68105185E-001     541.95  <-- SCF
      5  -1.98355747E+004  2.56404192E+000  -6.44728443E-001     731.94  <-- SCF
      6  -1.98284602E+004  2.18922260E+000  -2.63498058E-001     977.84  <-- SCF
      7  -1.98221625E+004  2.06618289E+000  -2.33248707E-001    1211.74  <-- SCF
      8  -1.98218326E+004  2.17458516E+000  -1.22187396E-002    1391.07  <-- SCF
      9  -1.98210090E+004  2.19036131E+000  -3.05026116E-002    1500.00  <-- SCF
     10  -1.98208630E+004  2.16870782E+000  -5.40897607E-003    1640.50  <-- SCF
     11  -1.98205665E+004  2.14039917E+000  -1.09788036E-002    1935.06  <-- SCF
     12  -1.98204043E+004  2.16398781E+000  -6.00734857E-003    2140.22  <-- SCF
     13  -1.98204368E+004  2.16740656E+000   1.20263155E-003    2252.03  <-- SCF
     14  -1.98203936E+004  2.16030100E+000  -1.60164061E-003    2462.18  <-- SCF
     15  -1.98204021E+004  2.16095023E+000   3.17529810E-004    2702.50  <-- SCF
     16  -1.98203873E+004  2.16300671E+000  -5.50984475E-004    2939.06  <-- SCF
     17  -1.98203886E+004  2.16481964E+000   5.08165079E-005    3240.92  <-- SCF
     18  -1.98203873E+004  2.16507156E+000  -4.94491290E-005    3564.88  <-- SCF
     19  -1.98203873E+004  2.16442402E+000  -2.03027744E-007    3748.36  <-- SCF
     20  -1.98203873E+004  2.16515826E+000  -2.97067306E-007    3864.17  <-- SCF
     21  -1.98203872E+004  2.16509982E+000  -2.22875373E-006    3974.13  <-- SCF
     22  -1.98203872E+004  2.16484690E+000  -6.97530181E-007    4056.45  <-- SCF
     23  -1.98203872E+004  2.16487827E+000   9.53039186E-009    4113.51  <-- SCF
     24  -1.98203872E+004  2.16488609E+000  -8.29525289E-009    4169.48  <-- SCF
------------------------------------------------------------------------ <-- SCF
 
Final energy, E             =  -19819.88443513     eV
Final free energy (E-TS)    =  -19820.38721110     eV
(energies not corrected for finite basis set)
 
NB est. 0K energy (E-0.5TS)      =  -19820.13582312     eV
 
Calculating total energy with cut-off of  345.000eV.
------------------------------------------------------------------------ <-- SCF
SCF loop      Energy           Fermi           Energy gain       Timer   <-- SCF
                               energy          per atom          (sec)   <-- SCF
------------------------------------------------------------------------ <-- SCF
Initial  -1.98198844E+004  0.00000000E+000                      4199.49  <-- SCF
      1  -1.98221358E+004  2.14879210E+000   8.33849446E-002    4272.11  <-- SCF
      2  -1.98221398E+004  2.14877785E+000   1.45923056E-004    4361.13  <-- SCF
      3  -1.98222897E+004  2.18043702E+000   5.55421638E-003    4452.50  <-- SCF
      4  -1.98221373E+004  2.16936760E+000  -5.64600558E-003    4542.19  <-- SCF
      5  -1.98221327E+004  2.16640080E+000  -1.69284760E-004    4635.84  <-- SCF
      6  -1.98221334E+004  2.16209669E+000   2.63253174E-005    4723.62  <-- SCF
      7  -1.98221323E+004  2.16052161E+000  -4.11234348E-005    4811.27  <-- SCF
      8  -1.98221324E+004  2.16142892E+000   2.51287866E-006    4890.83  <-- SCF
      9  -1.98221322E+004  2.16216858E+000  -7.91411593E-006    4971.68  <-- SCF
     10  -1.98221322E+004  2.16232294E+000   3.41521654E-008    5044.81  <-- SCF
     11  -1.98221322E+004  2.16244610E+000   1.53317640E-008    5104.85  <-- SCF
------------------------------------------------------------------------ <-- SCF
 
Final energy, E             =  -19821.62942626     eV
Final free energy (E-TS)    =  -19822.13217467     eV
(energies not corrected for finite basis set)
 
NB est. 0K energy (E-0.5TS)      =  -19821.88080046     eV
 
Calculating total energy with cut-off of  350.000eV.
------------------------------------------------------------------------ <-- SCF
SCF loop      Energy           Fermi           Energy gain       Timer   <-- SCF
                               energy          per atom          (sec)   <-- SCF
------------------------------------------------------------------------ <-- SCF
Initial  -1.98216294E+004  0.00000000E+000                      5125.91  <-- SCF
      1  -1.98239266E+004  2.14421755E+000   8.50809723E-002    5200.01  <-- SCF
      2  -1.98239306E+004  2.14416176E+000   1.49702839E-004    5288.87  <-- SCF
      3  -1.98241155E+004  2.18142736E+000   6.84793835E-003    5381.92  <-- SCF
      4  -1.98239285E+004  2.16635572E+000  -6.92592375E-003    5472.50  <-- SCF
      5  -1.98239222E+004  2.16325053E+000  -2.31881503E-004    5565.89  <-- SCF
      6  -1.98239228E+004  2.15911085E+000   2.00059019E-005    5654.23  <-- SCF
      7  -1.98239218E+004  2.15702458E+000  -3.82600556E-005    5744.79  <-- SCF
      8  -1.98239218E+004  2.15775626E+000   1.88452898E-006    5825.81  <-- SCF
      9  -1.98239215E+004  2.15864221E+000  -9.37484433E-006    5909.11  <-- SCF
     10  -1.98239216E+004  2.15889342E+000   3.83099319E-008    5984.88  <-- SCF
     11  -1.98239216E+004  2.15894939E+000   1.56356219E-007    6049.87  <-- SCF
     12  -1.98239215E+004  2.15894185E+000  -2.94038008E-007    6108.89  <-- SCF
     13  -1.98239215E+004  2.15894639E+000   3.19328108E-008    6164.53  <-- SCF
     14  -1.98239215E+004  2.15894590E+000  -6.48138601E-009    6219.09  <-- SCF
------------------------------------------------------------------------ <-- SCF
 
Final energy, E             =  -19823.41439347     eV
Final free energy (E-TS)    =  -19823.92154731     eV
(energies not corrected for finite basis set)
 
NB est. 0K energy (E-0.5TS)      =  -19823.66797039     eV
 
 For future reference: finite basis dEtot/dlog(Ecut) =    -123.899460eV
 Total energy corrected for finite basis set =  -19823.911695 eV

 ***************** Symmetrised Forces *****************
 *                                                    *
 *            Cartesian components (eV/A)             *
 * -------------------------------------------------- *
 *                   x            y            z      *
 *                                                    *
 * O         1      0.00000     -0.50739     -0.25036 *
 * O         2     -0.57878     -0.00125     -0.21762 *
 * O         3      0.57878     -0.00125     -0.21762 *
 * O         4      0.00000      0.60620     -0.69583 *
 * O         5     -0.02164     -0.00050      0.27179 *
 * O         6      0.02164     -0.00050      0.27179 *
 * O         7      0.00000     -0.48091      0.48641 *
 * O         8     -0.51783      0.10302      0.25939 *
 * O         9      0.51783      0.10302      0.25939 *
 * O        10      0.00000      0.02583      0.02011 *
 * O        11      0.02122     -0.00946     -0.02529 *
 * O        12     -0.02122     -0.00946     -0.02529 *
 * O        13      0.00000      0.05137      0.47300 *
 * Mg        1      5.92229      5.91603      6.12770 *
 * Mg        2     -5.92229      5.91603      6.12770 *
 * Mg        3      0.00000      0.02464      8.63778 *
 * Mg        4      5.95992     -5.91211      6.16304 *
 * Mg        5     -5.95992     -5.91211      6.16304 *
 * Mg        6      0.00000     -8.67021     -0.02807 *
 * Ca        1      0.00000      8.63900     -0.13501 *
 * Ca        2      9.20445      0.03673     -0.11443 *
 * Ca        3     -9.20445      0.03673     -0.11443 *
 * Ca        4      5.64731      5.63675     -6.18160 *
 * Ca        5     -5.64731      5.63675     -6.18160 *
 * Ca        6      0.00000      0.03464     -8.61549 *
 * Ca        7      5.67648     -5.63078     -6.22925 *
 * Ca        8     -5.67648     -5.63078     -6.22925 *
 *                                                    *
 ******************************************************

 *********** Symmetrised Stress Tensor ***********
 *                                               *
 *          Cartesian components (GPa)           *
 * --------------------------------------------- *
 *             x             y             z     *
 *                                               *
 *  x     -1.864700      0.000000      0.000000  *
 *  y      0.000000     -1.967284     -0.061069  *
 *  z      0.000000     -0.061069     -2.242208  *
 *                                               *
 *  Pressure:    2.0247                          *
 *                                               *
 *************************************************

 Pseudo atomic calculation performed for O 2s2 2p4

 Converged in 30 iterations to a total energy of -431.1785 eV


 Pseudo atomic calculation performed for Mg 2p6 3s2

 Converged in 23 iterations to a total energy of -1024.5896 eV


 Pseudo atomic calculation performed for Ca 3s2 3p6 4s2

 Converged in 24 iterations to a total energy of -1000.4330 eV

Charge spilling parameter for spin component 1 = 0.45%

     Atomic Populations (Mulliken)
     -----------------------------
Species   Ion     s      p      d      f     Total  Charge (e)
==============================================================
  O        1     1.98   4.45   0.00   0.00   6.43    -0.43
  O        2     1.98   4.46   0.00   0.00   6.44    -0.44
  O        3     1.98   4.46   0.00   0.00   6.44    -0.44
  O        4     1.98   4.41   0.00   0.00   6.39    -0.39
  O        5     1.98   4.54   0.00   0.00   6.52    -0.52
  O        6     1.98   4.54   0.00   0.00   6.52    -0.52
  O        7     1.96   4.86   0.00   0.00   6.83    -0.83
  O        8     1.98   4.50   0.00   0.00   6.48    -0.48
  O        9     1.98   4.50   0.00   0.00   6.48    -0.48
  O       10     1.98   4.56   0.00   0.00   6.54    -0.54
  O       11     1.98   4.57   0.00   0.00   6.55    -0.55
  O       12     1.98   4.57   0.00   0.00   6.55    -0.55
  O       13     1.98   4.52   0.00   0.00   6.50    -0.50
  Mg       1     1.09   6.64   0.00   0.00   7.73     0.27
  Mg       2     1.09   6.64   0.00   0.00   7.73     0.27
  Mg       3     1.19   6.68   0.00   0.00   7.87     0.13
  Mg       4     1.09   6.61   0.00   0.00   7.70     0.30
  Mg       5     1.09   6.61   0.00   0.00   7.70     0.30
  Mg       6     1.21   6.64   0.00   0.00   7.85     0.15
  Ca       1     2.33   5.99   0.66   0.00   8.98     1.02
  Ca       2     2.41   5.97   0.75   0.00   9.13     0.87
  Ca       3     2.41   5.97   0.75   0.00   9.13     0.87
  Ca       4     2.14   5.92   1.61   0.00   9.66     0.34
  Ca       5     2.14   5.92   1.61   0.00   9.66     0.34
  Ca       6     2.35   5.99   0.67   0.00   9.01     0.99
  Ca       7     2.10   5.92   1.60   0.00   9.61     0.39
  Ca       8     2.10   5.92   1.60   0.00   9.61     0.39
==============================================================

            Bond              Population      Length (A)
============================================================
         Ca 7 -- Ca 8             -0.02        2.10000
         Ca 5 -- Ca 8             -0.06        2.10000
         Ca 4 -- Ca 7             -0.06        2.10000
         Ca 4 -- Ca 5             -0.05        2.10000
         Ca 2 -- Ca 3             -0.10        2.10000
         Mg 6 -- Ca 1             -0.47        2.10000
         Mg 5 -- Ca 8             -0.26        2.10000
         Mg 4 -- Ca 7             -0.26        2.10000
         Mg 4 -- Mg 5              0.33        2.10000
         Mg 3 -- Ca 6             -0.47        2.10000
         Mg 2 -- Ca 5             -0.25        2.10000
         Mg 2 -- Mg 5              0.27        2.10000
         Mg 1 -- Ca 4             -0.25        2.10000
         Mg 1 -- Mg 4              0.27        2.10000
         Mg 1 -- Mg 2              0.32        2.10000
         O 11 -- O 12              0.03        2.10000
         O 10 -- O 13              0.04        2.10000
         O 8  -- O 9               0.06        2.10000
         O 6  -- O 9               0.04        2.10000
         O 5  -- O 8               0.04        2.10000
         O 5  -- O 6               0.04        2.10000
         O 4  -- O 13              0.07        2.10000
         O 3  -- O 12              0.05        2.10000
         O 2  -- O 11              0.05        2.10000
         O 2  -- O 3               0.08        2.10000
         O 1  -- O 10              0.04        2.10000
         O 1  -- O 4               0.08        2.10000
         Ca 5 -- Ca 7              0.15        2.96985
         Ca 4 -- Ca 8              0.15        2.96985
         Mg 5 -- Ca 7             -0.07        2.96985
         Mg 5 -- Ca 5             -0.07        2.96985
         Mg 4 -- Ca 8             -0.07        2.96985
         Mg 4 -- Ca 4             -0.07        2.96985
         Mg 2 -- Ca 8             -0.08        2.96985
         Mg 2 -- Ca 4             -0.09        2.96985
         Mg 2 -- Mg 4             -1.75        2.96985
         Mg 1 -- Ca 7             -0.08        2.96985
         Mg 1 -- Ca 5             -0.09        2.96985
         Mg 1 -- Mg 5             -1.75        2.96985
         O 6  -- O 8              -0.04        2.96985
         O 5  -- O 9              -0.04        2.96985
         O 4  -- O 10             -0.04        2.96985
         O 3  -- O 11             -0.04        2.96985
         O 2  -- O 12             -0.04        2.96985
         O 1  -- O 13             -0.03        2.96985
============================================================


Writing model to ol_3.check

Writing analysis data to ol_3.castep_bin
 
 A BibTeX formatted list of references used in this run has been written to 
 ol_3.bib
 
Initialisation time =     31.66 s
Calculation time    =   6418.91 s
Finalisation time   =      3.19 s
Total time          =   6453.76 s
Peak Memory Use     = 1025832 kB
  
Overall parallel efficiency rating: Excellent (98%)                             
  
Data was distributed by:-
k-point (2-way); efficiency rating: Excellent (98%)                             
