 +-------------------------------------------------+
 |                                                 |
 |      CCC   AA    SSS  TTTTT  EEEEE  PPPP        |
 |     C     A  A  S       T    E      P   P       |
 |     C     AAAA   SS     T    EEE    PPPP        |
 |     C     A  A     S    T    E      P           |
 |      CCC  A  A  SSS     T    EEEEE  P           |
 |                                                 |
 +-------------------------------------------------+
 |                                                 |
 | Welcome to Academic Release CASTEP version 9.0  |
 | Ab Initio Total Energy Program                  |
 |                                                 |
 | Authors:                                        |
 | M. Segall, M. Probert, C. Pickard, P. Hasnip,   |
 | S. Clark, K. Refson, J. R. Yates, M. Payne      |
 |                                                 |
 | Contributors:                                   |
 | P. Lindan, P. Haynes, J. White, V. Milman,      |
 | N. Govind, M. Gibson, P. Tulip, V. Cocula,      |
 | B. Montanari, D. Quigley, M. Glover,            |
 | L. Bernasconi, A. Perlov, M. Plummer,           |
 | E. McNellis, J. Meyer, J. Gale, D. Jochym       |
 | J. Aarons, B. Walker, R. Gillen, D. Jones       |
 | T. Green, I. J. Bush, C. J. Armstrong,          |
 | E. J. Higgins, M. D. Hodgson                    |
 |                                                 |
 | Copyright (c) 2000 - 2015                       |
 |                                                 |
 |     Distributed under the terms of an           |
 |     Agreement between the United Kingdom        |
 |     Car-Parrinello (UKCP) Consortium,           |
 |     Daresbury Laboratory and Accelrys, Inc.     |
 |                                                 |
 | Please cite                                     |
 |                                                 |
 |     "First principles methods using CASTEP"     |
 |                                                 |
 |         Zeitschrift fuer Kristallographie       |
 |           220(5-6) pp. 567-570 (2005)           |
 |                                                 |
 | S. J. Clark, M. D. Segall, C. J. Pickard,       |
 | P. J. Hasnip, M. J. Probert, K. Refson,         |
 | M. C. Payne                                     |
 |                                                 |
 |       in all publications arising from          |
 |              your use of CASTEP                 |
 |                                                 |
 +-------------------------------------------------+
 
 
 Compiled for linux_x86_64_ifort12 on Fri, 09 Oct 2015 16:14:59 +0100
 from code version 01cdeb6dcbec+  Thu, 01 Oct 2015 17:06:55 +0100
 Compiler: Intel Fortran 12.1.5.339; Optimisation: fast
 MATHLIBS: Intel MKL(11.0.5) (LAPACK version 3.4.1)
 FFT Lib : default
 Fundamental constants values: CODATA 2010
 
 Run started: Wed, 20 Apr 2016 13:18:41 +0100
 Warning: parameters_read - missing parameters file, using defaults
 
 Atomic calculation performed for O: 1s2 2s2 2p4
 
 Converged in 60 iterations to an ae energy of -2027.926 eV
 
   ============================================================                
   | Pseudopotential Report - Date of generation 20-04-2016   |                
   ------------------------------------------------------------                
   | Element: O Ionic charge:  6.00 Level of theory: LDA      |                
   | Atomic Solver: Koelling-Harmon                           |                
   |                                                          |                
   |               Reference Electronic Structure             |                
   |         Orbital         Occupation         Energy        |                
   |            2s              2.000           -0.873        |                
   |            2p              4.000           -0.338        |                
   |                                                          |                
   |                 Pseudopotential Definition               |                
   |        Beta     l      e      Rc     scheme   norm       |                
   |          1      0   -0.873   1.100     qc      0         |                
   |          2      0    0.250   1.100     qc      0         |                
   |          3      1   -0.338   1.100     qc      0         |                
   |          4      1    0.250   1.100     qc      0         |                
   |         loc     2    0.000   1.100     pn      0         |                
   |                                                          |                
   | Augmentation charge Rinner = 0.769                       |                
   | Partial core correction Rc = 0.769                       |                
   ------------------------------------------------------------                
   | "2|1.1|15|18|20|20:21(qc=7)"                             |                
   ------------------------------------------------------------                
   |      Author: Chris J. Pickard, Cambridge University      |                
   ============================================================                
 
 Atomic calculation performed for Mg: 1s2 2s2 2p6 3s2
 
 Converged in 47 iterations to an ae energy of -5427.407 eV
 
   ============================================================                
   | Pseudopotential Report - Date of generation 20-04-2016   |                
   ------------------------------------------------------------                
   | Element: Mg Ionic charge: 10.00 Level of theory: LDA     |                
   | Atomic Solver: Koelling-Harmon                           |                
   |                                                          |                
   |               Reference Electronic Structure             |                
   |         Orbital         Occupation         Energy        |                
   |            2s              2.000           -2.914        |                
   |            2p              6.000           -1.717        |                
   |            3s              2.000           -0.176        |                
   |                                                          |                
   |                 Pseudopotential Definition               |                
   |        Beta     l      e      Rc     scheme   norm       |                
   |          1      0   -2.914   1.804     qc      0         |                
   |          2      0   -0.176   1.804     qc      0         |                
   |          3      0    0.250   1.804     qc      0         |                
   |          4      1   -1.717   1.804     qc      0         |                
   |          5      1    0.250   1.804     qc      0         |                
   |          6      2    0.000   1.804     qc      0         |                
   |          7      2    0.250   1.804     qc      0         |                
   |         loc     3    0.000   1.804     pn      0         |                
   |                                                          |                
   | Augmentation charge Rinner = 1.261                       |                
   | Partial core correction Rc = 1.261                       |                
   ------------------------------------------------------------                
   | "3|1.8|7|8|9|20U:30:21:32"                               |                
   ------------------------------------------------------------                
   |      Author: Chris J. Pickard, Cambridge University      |                
   ============================================================                
 
 Atomic calculation performed for Ca: 1s2 2s2 2p6 3s2 3p6 4s2
 
 Converged in 44 iterations to an ae energy of -18468.059 eV
 
   ============================================================                
   | Pseudopotential Report - Date of generation 20-04-2016   |                
   ------------------------------------------------------------                
   | Element: Ca Ionic charge: 10.00 Level of theory: LDA     |                
   | Atomic Solver: Koelling-Harmon                           |                
   |                                                          |                
   |               Reference Electronic Structure             |                
   |         Orbital         Occupation         Energy        |                
   |            3s              2.000           -1.721        |                
   |            3p              6.000           -1.028        |                
   |            4s              2.000           -0.142        |                
   |                                                          |                
   |                 Pseudopotential Definition               |                
   |        Beta     l      e      Rc     scheme   norm       |                
   |          1      0   -1.721   2.005     qc      0         |                
   |          2      0   -0.142   2.005     qc      0         |                
   |          3      0    0.250   2.005     qc      0         |                
   |          4      1   -1.028   2.005     qc      0         |                
   |          5      1    0.250   2.005     qc      0         |                
   |          6      2    0.000   2.005     qc      0         |                
   |          7      2    0.250   2.005     qc      0         |                
   |         loc     3    0.000   2.005     pn      0         |                
   |                                                          |                
   | Augmentation charge Rinner = 1.401                       |                
   | Partial core correction Rc = 1.401                       |                
   ------------------------------------------------------------                
   | "3|2.0|7|8|9|30U:40:31:32"                               |                
   ------------------------------------------------------------                
   |      Author: Chris J. Pickard, Cambridge University      |                
   ============================================================                
 
 Pseudo atomic calculation performed for O 2s2 2p4
 
 Converged in 24 iterations to a total energy of -431.6155 eV
 
 
 Pseudo atomic calculation performed for Mg 2s2 2p6 3s2
 
 Converged in 20 iterations to a total energy of -1684.7622 eV
 
 
 Pseudo atomic calculation performed for Ca 3s2 3p6 4s2
 
 Converged in 19 iterations to a total energy of -1001.6194 eV
 
 Calculation not parallelised.
 Warning: parameters_output - missing parameters file, using defaults

 ************************************ Title ************************************
 

 ***************************** General Parameters ******************************
  
 output verbosity                               : normal  (1)
 write checkpoint data to                       : MgO.check
 type of calculation                            : single point energy
 stress calculation                             : off
 density difference calculation                 : off
 electron localisation func (ELF) calculation   : off
 Hirshfeld analysis                             : off
 unlimited duration calculation
 timing information                             : on
 memory usage estimate                          : on
 write final potential to formatted file        : off
 write final density to formatted file          : off
 write BibTeX reference list                    : on
 write OTFG pseudopotential files               : on
 checkpoint writing                             : both castep_bin and check files
 random number generator seed                   : randomised (131841856)

 *********************** Exchange-Correlation Parameters ***********************
  
 using functional                               : Local Density Approximation
 DFT+D: Semi-empirical dispersion correction    : off

 ************************* Pseudopotential Parameters **************************
  
 pseudopotential representation                 : reciprocal space
 <beta|phi> representation                      : reciprocal space
 spin-orbit coupling                            : off

 **************************** Basis Set Parameters *****************************
  
 basis set accuracy                             : FINE
 finite basis set correction                    : none

 **************************** Electronic Parameters ****************************
  
 number of  electrons                           :  64.00    
 net charge of system                           :  0.000    
 treating system as non-spin-polarized
 number of bands                                :         38

 ********************* Electronic Minimization Parameters **********************
  
 Method: Treating system as metallic with density mixing treatment of electrons,
         and number of  SD  steps               :          1
         and number of  CG  steps               :          4
  
 total energy / atom convergence tol.           : 0.1000E-04   eV
 eigen-energy convergence tolerance             : 0.1000E-05   eV
 max force / atom convergence tol.              : ignored
 periodic dipole correction                     : NONE

 ************************** Density Mixing Parameters **************************
  
 density-mixing scheme                          : Broyden
 max. length of mixing history                  :         20

 *********************** Population Analysis Parameters ************************
  
 Population analysis with cutoff                :  3.000       A

 *******************************************************************************
  
 
                           -------------------------------
                                      Unit Cell
                           -------------------------------
        Real Lattice(A)                      Reciprocal Lattice(1/A)
   4.2000000   0.0000000   0.0000000        1.4959965   0.0000000   0.0000000
   0.0000000   4.2000000   0.0000000        0.0000000   1.4959965   0.0000000
   0.0000000   0.0000000   4.2000000        0.0000000   0.0000000   1.4959965
 
                       Lattice parameters(A)       Cell Angles
                    a =    4.200000          alpha =   90.000000
                    b =    4.200000          beta  =   90.000000
                    c =    4.200000          gamma =   90.000000
 
                       Current cell volume =   74.088000       A**3
 
                           -------------------------------
                                     Cell Contents
                           -------------------------------
                         Total number of ions in cell =    8
                      Total number of species in cell =    3
                        Max number of any one species =    4
 
            xxxxxxxxxxxxxxxxxxxxxxxxxxxxxxxxxxxxxxxxxxxxxxxxxxxxxxxxxxxx
            x  Element    Atom        Fractional coordinates of atoms  x
            x            Number           u          v          w      x
            x----------------------------------------------------------x
            x  O            1         0.500000   0.500000   0.500000   x 
            x  O            2         0.500000   0.000000   0.000000   x 
            x  O            3         0.500000   0.000000   0.500000   x 
            x  O            4         0.500000   0.500000   0.000000   x 
            x  Mg           1         0.000000   0.500000   0.000000   x 
            x  Mg           2         0.000000   0.500000   0.500000   x 
            x  Ca           1         0.000000   0.000000   0.500000   x 
            x  Ca           2         0.000000   0.000000   0.000000   x 
            xxxxxxxxxxxxxxxxxxxxxxxxxxxxxxxxxxxxxxxxxxxxxxxxxxxxxxxxxxxx
 
 
                         No user defined ionic velocities
 
                           -------------------------------
                                   Details of Species
                           -------------------------------
 
                               Mass of species in AMU
                                    O   15.9994000
                                    Mg   24.3050000
                                    Ca   40.0780000
 
                          Electric Quadrupole Moment (Barn)
                                    O   -0.0255800 Isotope 17
                                    Mg    0.1994000 Isotope 25
                                    Ca   -0.0408000 Isotope 43
 
                          Files used for pseudopotentials:
                                    O 2|1.1|15|18|20|20:21(qc=7)
                                    Mg 3|1.8|7|8|9|20U:30:21:32
                                    Ca 3|2.0|7|8|9|30U:40:31:32
 
                           -------------------------------
                              k-Points For BZ Sampling
                           -------------------------------
                       MP grid size for SCF calculation is  3  3  3
                            with an offset of   0.000  0.000  0.000
                       Number of kpoints used =             8
 
                           -------------------------------
                               Symmetry and Constraints
                           -------------------------------
 
                      Cell is a supercell containing 2 primitive cells
                      Maximum deviation from symmetry = 0.940008E-15     ANG
 
                      Number of symmetry operations   =          16
                      Number of ionic constraints     =           3
                      Point group of crystal =     8: D2h, mmm, 2/m 2/m 2/m
                      Space group of crystal =    47: Pmmm, -P 2 2
 
             Set iprint > 1 for details on symmetry rotations/translations
 
                         Centre of mass is constrained
             Set iprint > 1 for details of linear ionic constraints
 
                         Number of cell constraints= 5
                         Cell constraints are:  1 1 1 0 0 0
 
                         External pressure/stress (GPa)
                          0.00000   0.00000   0.00000
                                    0.00000   0.00000
                                              0.00000
  
+---------------- MEMORY AND SCRATCH DISK ESTIMATES PER PROCESS --------------+
|                                                     Memory          Disk    |
| Baseline code, static data and system overhead      146.0 MB         0.0 MB |
| BLAS internal memory storage                          0.0 MB         0.0 MB |
| Model and support data                               65.4 MB        88.7 MB |
| Electronic energy minimisation requirements          25.1 MB         0.0 MB |
| Force calculation requirements                        3.5 MB         0.0 MB |
|                                               ----------------------------- |
| Approx. total storage required per process          236.5 MB        88.7 MB |
|                                                                             |
| Requirements will fluctuate during execution and may exceed these estimates |
+-----------------------------------------------------------------------------+
------------------------------------------------------------------------ <-- SCF
SCF loop      Energy           Fermi           Energy gain       Timer   <-- SCF
                               energy          per atom          (sec)   <-- SCF
------------------------------------------------------------------------ <-- SCF
Initial  -5.80876997E+003  0.00000000E+000                        13.18  <-- SCF
      1  -6.95495453E+003  9.42446961E+000   1.43273071E+002      14.84  <-- SCF
      2  -7.11650747E+003  8.05271280E+000   2.01941171E+001      16.27  <-- SCF
      3  -7.12129546E+003  7.92477284E+000   5.98498459E-001      17.67  <-- SCF
      4  -7.12560798E+003  8.70263195E+000   5.39064767E-001      19.23  <-- SCF
      5  -7.11930683E+003  8.51411859E+000  -7.87643462E-001      20.71  <-- SCF
      6  -7.11882328E+003  8.58156008E+000  -6.04440476E-002      22.11  <-- SCF
      7  -7.11874208E+003  8.16547614E+000  -1.01489555E-002      23.49  <-- SCF
 +-------------------------------------------------+
 |                                                 |
 |      CCC   AA    SSS  TTTTT  EEEEE  PPPP        |
 |     C     A  A  S       T    E      P   P       |
 |     C     AAAA   SS     T    EEE    PPPP        |
 |     C     A  A     S    T    E      P           |
 |      CCC  A  A  SSS     T    EEEEE  P           |
 |                                                 |
 +-------------------------------------------------+
 |                                                 |
 | Welcome to Academic Release CASTEP version 9.0  |
 | Ab Initio Total Energy Program                  |
 |                                                 |
 | Authors:                                        |
 | M. Segall, M. Probert, C. Pickard, P. Hasnip,   |
 | S. Clark, K. Refson, J. R. Yates, M. Payne      |
 |                                                 |
 | Contributors:                                   |
 | P. Lindan, P. Haynes, J. White, V. Milman,      |
 | N. Govind, M. Gibson, P. Tulip, V. Cocula,      |
 | B. Montanari, D. Quigley, M. Glover,            |
 | L. Bernasconi, A. Perlov, M. Plummer,           |
 | E. McNellis, J. Meyer, J. Gale, D. Jochym       |
 | J. Aarons, B. Walker, R. Gillen, D. Jones       |
 | T. Green, I. J. Bush, C. J. Armstrong,          |
 | E. J. Higgins, M. D. Hodgson                    |
 |                                                 |
 | Copyright (c) 2000 - 2015                       |
 |                                                 |
 |     Distributed under the terms of an           |
 |     Agreement between the United Kingdom        |
 |     Car-Parrinello (UKCP) Consortium,           |
 |     Daresbury Laboratory and Accelrys, Inc.     |
 |                                                 |
 | Please cite                                     |
 |                                                 |
 |     "First principles methods using CASTEP"     |
 |                                                 |
 |         Zeitschrift fuer Kristallographie       |
 |           220(5-6) pp. 567-570 (2005)           |
 |                                                 |
 | S. J. Clark, M. D. Segall, C. J. Pickard,       |
 | P. J. Hasnip, M. J. Probert, K. Refson,         |
 | M. C. Payne                                     |
 |                                                 |
 |       in all publications arising from          |
 |              your use of CASTEP                 |
 |                                                 |
 +-------------------------------------------------+
 
 
 Compiled for linux_x86_64_ifort12 on Fri, 09 Oct 2015 16:14:59 +0100
 from code version 01cdeb6dcbec+  Thu, 01 Oct 2015 17:06:55 +0100
 Compiler: Intel Fortran 12.1.5.339; Optimisation: fast
 MATHLIBS: Intel MKL(11.0.5) (LAPACK version 3.4.1)
 FFT Lib : default
 Fundamental constants values: CODATA 2010
 
 Run started: Wed, 20 Apr 2016 13:20:56 +0100
 
 Atomic calculation performed for O: 1s2 2s2 2p4
 
 Converged in 60 iterations to an ae energy of -2027.926 eV
 
   ============================================================                
   | Pseudopotential Report - Date of generation 20-04-2016   |                
   ------------------------------------------------------------                
   | Element: O Ionic charge:  6.00 Level of theory: LDA      |                
   | Atomic Solver: Koelling-Harmon                           |                
   |                                                          |                
   |               Reference Electronic Structure             |                
   |         Orbital         Occupation         Energy        |                
   |            2s              2.000           -0.873        |                
   |            2p              4.000           -0.338        |                
   |                                                          |                
   |                 Pseudopotential Definition               |                
   |        Beta     l      e      Rc     scheme   norm       |                
   |          1      0   -0.873   1.100     qc      0         |                
   |          2      0    0.250   1.100     qc      0         |                
   |          3      1   -0.338   1.100     qc      0         |                
   |          4      1    0.250   1.100     qc      0         |                
   |         loc     2    0.000   1.100     pn      0         |                
   |                                                          |                
   | Augmentation charge Rinner = 0.769                       |                
   | Partial core correction Rc = 0.769                       |                
   ------------------------------------------------------------                
   | "2|1.1|15|18|20|20:21(qc=7)"                             |                
   ------------------------------------------------------------                
   |      Author: Chris J. Pickard, Cambridge University      |                
   ============================================================                
 
 Atomic calculation performed for Mg: 1s2 2s2 2p6 3s2
 
 Converged in 47 iterations to an ae energy of -5427.407 eV
 
 +-------------------------------------------------+
 |                                                 |
 |      CCC   AA    SSS  TTTTT  EEEEE  PPPP        |
 |     C     A  A  S       T    E      P   P       |
 |     C     AAAA   SS     T    EEE    PPPP        |
 |     C     A  A     S    T    E      P           |
 |      CCC  A  A  SSS     T    EEEEE  P           |
 |                                                 |
 +-------------------------------------------------+
 |                                                 |
 | Welcome to Academic Release CASTEP version 9.0  |
 | Ab Initio Total Energy Program                  |
 |                                                 |
 | Authors:                                        |
 | M. Segall, M. Probert, C. Pickard, P. Hasnip,   |
 | S. Clark, K. Refson, J. R. Yates, M. Payne      |
 |                                                 |
 | Contributors:                                   |
 | P. Lindan, P. Haynes, J. White, V. Milman,      |
 | N. Govind, M. Gibson, P. Tulip, V. Cocula,      |
 | B. Montanari, D. Quigley, M. Glover,            |
 | L. Bernasconi, A. Perlov, M. Plummer,           |
 | E. McNellis, J. Meyer, J. Gale, D. Jochym       |
 | J. Aarons, B. Walker, R. Gillen, D. Jones       |
 | T. Green, I. J. Bush, C. J. Armstrong,          |
 | E. J. Higgins, M. D. Hodgson                    |
 |                                                 |
 | Copyright (c) 2000 - 2015                       |
 |                                                 |
 |     Distributed under the terms of an           |
 |     Agreement between the United Kingdom        |
 |     Car-Parrinello (UKCP) Consortium,           |
 |     Daresbury Laboratory and Accelrys, Inc.     |
 |                                                 |
 | Please cite                                     |
 |                                                 |
 |     "First principles methods using CASTEP"     |
 |                                                 |
 |         Zeitschrift fuer Kristallographie       |
 |           220(5-6) pp. 567-570 (2005)           |
 |                                                 |
 | S. J. Clark, M. D. Segall, C. J. Pickard,       |
 | P. J. Hasnip, M. J. Probert, K. Refson,         |
 | M. C. Payne                                     |
 |                                                 |
 |       in all publications arising from          |
 |              your use of CASTEP                 |
 |                                                 |
 +-------------------------------------------------+
 
 
 Compiled for linux_x86_64_ifort12 on Fri, 09 Oct 2015 16:14:59 +0100
 from code version 01cdeb6dcbec+  Thu, 01 Oct 2015 17:06:55 +0100
 Compiler: Intel Fortran 12.1.5.339; Optimisation: fast
 MATHLIBS: Intel MKL(11.0.5) (LAPACK version 3.4.1)
 FFT Lib : default
 Fundamental constants values: CODATA 2010
 
 Run started: Wed, 20 Apr 2016 13:21:21 +0100
 
 Atomic calculation performed for O: 1s2 2s2 2p4
 
 Converged in 60 iterations to an ae energy of -2027.926 eV
 
   ============================================================                
   | Pseudopotential Report - Date of generation 20-04-2016   |                
   ------------------------------------------------------------                
   | Element: O Ionic charge:  6.00 Level of theory: LDA      |                
   | Atomic Solver: Koelling-Harmon                           |                
   |                                                          |                
   |               Reference Electronic Structure             |                
   |         Orbital         Occupation         Energy        |                
   |            2s              2.000           -0.873        |                
   |            2p              4.000           -0.338        |                
   |                                                          |                
   |                 Pseudopotential Definition               |                
   |        Beta     l      e      Rc     scheme   norm       |                
   |          1      0   -0.873   1.100     qc      0         |                
   |          2      0    0.250   1.100     qc      0         |                
   |          3      1   -0.338   1.100     qc      0         |                
   |          4      1    0.250   1.100     qc      0         |                
   |         loc     2    0.000   1.100     pn      0         |                
   |                                                          |                
   | Augmentation charge Rinner = 0.769                       |                
   | Partial core correction Rc = 0.769                       |                
   ------------------------------------------------------------                
   | "2|1.1|15|18|20|20:21(qc=7)"                             |                
   ------------------------------------------------------------                
   |      Author: Chris J. Pickard, Cambridge University      |                
   ============================================================                
 
 Atomic calculation performed for Mg: 1s2 2s2 2p6 3s2
 
 Converged in 47 iterations to an ae energy of -5427.407 eV
 
   ============================================================                
   | Pseudopotential Report - Date of generation 20-04-2016   |                
   ------------------------------------------------------------                
   | Element: Mg Ionic charge: 10.00 Level of theory: LDA     |                
   | Atomic Solver: Koelling-Harmon                           |                
   |                                                          |                
   |               Reference Electronic Structure             |                
   |         Orbital         Occupation         Energy        |                
   |            2s              2.000           -2.914        |                
   |            2p              6.000           -1.717        |                
   |            3s              2.000           -0.176        |                
   |                                                          |                
   |                 Pseudopotential Definition               |                
   |        Beta     l      e      Rc     scheme   norm       |                
   |          1      0   -2.914   1.804     qc      0         |                
   |          2      0   -0.176   1.804     qc      0         |                
   |          3      0    0.250   1.804     qc      0         |                
   |          4      1   -1.717   1.804     qc      0         |                
   |          5      1    0.250   1.804     qc      0         |                
   |          6      2    0.000   1.804     qc      0         |                
   |          7      2    0.250   1.804     qc      0         |                
   |         loc     3    0.000   1.804     pn      0         |                
   |                                                          |                
   | Augmentation charge Rinner = 1.261                       |                
   | Partial core correction Rc = 1.261                       |                
   ------------------------------------------------------------                
   | "3|1.8|7|8|9|20U:30:21:32"                               |                
   ------------------------------------------------------------                
   |      Author: Chris J. Pickard, Cambridge University      |                
   ============================================================                
 
 Atomic calculation performed for Ca: 1s2 2s2 2p6 3s2 3p6 4s2
 
 Converged in 44 iterations to an ae energy of -18468.059 eV
 
   ============================================================                
   | Pseudopotential Report - Date of generation 20-04-2016   |                
   ------------------------------------------------------------                
   | Element: Ca Ionic charge: 10.00 Level of theory: LDA     |                
   | Atomic Solver: Koelling-Harmon                           |                
   |                                                          |                
   |               Reference Electronic Structure             |                
   |         Orbital         Occupation         Energy        |                
   |            3s              2.000           -1.721        |                
   |            3p              6.000           -1.028        |                
   |            4s              2.000           -0.142        |                
   |                                                          |                
   |                 Pseudopotential Definition               |                
   |        Beta     l      e      Rc     scheme   norm       |                
   |          1      0   -1.721   2.005     qc      0         |                
   |          2      0   -0.142   2.005     qc      0         |                
   |          3      0    0.250   2.005     qc      0         |                
   |          4      1   -1.028   2.005     qc      0         |                
   |          5      1    0.250   2.005     qc      0         |                
   |          6      2    0.000   2.005     qc      0         |                
   |          7      2    0.250   2.005     qc      0         |                
   |         loc     3    0.000   2.005     pn      0         |                
   |                                                          |                
   | Augmentation charge Rinner = 1.401                       |                
   | Partial core correction Rc = 1.401                       |                
   ------------------------------------------------------------                
   | "3|2.0|7|8|9|30U:40:31:32"                               |                
   ------------------------------------------------------------                
   |      Author: Chris J. Pickard, Cambridge University      |                
   ============================================================                
 
 Pseudo atomic calculation performed for O 2s2 2p4
 
 Converged in 28 iterations to a total energy of -424.4682 eV
 
 
 Pseudo atomic calculation performed for Mg 2s2 2p6 3s2
 
 Converged in 19 iterations to a total energy of -1684.3182 eV
 
 
 Pseudo atomic calculation performed for Ca 3s2 3p6 4s2
 
 Converged in 24 iterations to a total energy of -1001.5365 eV
 
 Calculation not parallelised.

 ************************************ Title ************************************
 MgO

 ***************************** General Parameters ******************************
  
 output verbosity                               : normal  (1)
 write checkpoint data to                       : MgO.check
 type of calculation                            : single point energy
 stress calculation                             : on
 density difference calculation                 : off
 electron localisation func (ELF) calculation   : off
 Hirshfeld analysis                             : off
 unlimited duration calculation
 timing information                             : on
 memory usage estimate                          : on
 write final potential to formatted file        : off
 write final density to formatted file          : off
 write BibTeX reference list                    : on
 write OTFG pseudopotential files               : on
 checkpoint writing                             : both castep_bin and check files
  
 output         length unit                     : A
 output           mass unit                     : amu
 output           time unit                     : ps
 output         charge unit                     : e
 output           spin unit                     : hbar/2
 output         energy unit                     : eV
 output          force unit                     : eV/A
 output       velocity unit                     : A/ps
 output       pressure unit                     : GPa
 output     inv_length unit                     : 1/A
 output      frequency unit                     : cm-1
 output force constant unit                     : eV/A**2
 output         volume unit                     : A**3
 output   IR intensity unit                     : (D/A)**2/amu
 output         dipole unit                     : D
 output         efield unit                     : eV/A/e
 output        entropy unit                     : J/mol/K
  
 wavefunctions paging                           : none
 random number generator seed                   : randomised (132121767)
 data distribution                              : optimal for this architecture
 optimization strategy                          : maximize speed(+++)

 *********************** Exchange-Correlation Parameters ***********************
  
 using functional                               : Local Density Approximation
 relativistic treatment                         : Koelling-Harmon
 DFT+D: Semi-empirical dispersion correction    : off

 ************************* Pseudopotential Parameters **************************
  
 pseudopotential representation                 : reciprocal space
 <beta|phi> representation                      : reciprocal space
 spin-orbit coupling                            : off

 **************************** Basis Set Parameters *****************************
  
 plane wave basis set cut-off                   :   280.0000   eV
 size of standard grid                          :     2.0000
 size of   fine   gmax                          :    17.1454   1/A
 finite basis set correction                    : automatic
 number of sample energies                      :          3
           sample  spacing                      :     5.0000   eV

 **************************** Electronic Parameters ****************************
  
 number of  electrons                           :  64.00    
 net charge of system                           :  0.000    
 treating system as non-spin-polarized
 number of bands                                :         38

 ********************* Electronic Minimization Parameters **********************
  
 Method: Treating system as metallic with density mixing treatment of electrons,
         and number of  SD  steps               :          1
         and number of  CG  steps               :          4
  
 total energy / atom convergence tol.           : 0.1000E-06   eV
 eigen-energy convergence tolerance             : 0.2500E-07   eV
 max force / atom convergence tol.              : ignored
 convergence tolerance window                   :          3   cycles
 max. number of SCF cycles                      :         60
 number of fixed-spin iterations                :         10
 smearing scheme                                : Gaussian
 smearing width                                 : 0.2000       eV
 Fermi energy convergence tolerance             : 0.2721E-13   eV
 periodic dipole correction                     : NONE

 ************************** Density Mixing Parameters **************************
  
 density-mixing scheme                          : Pulay
 max. length of mixing history                  :         30
 charge density mixing amplitude                : 0.8000    
 cut-off energy for mixing                      :  280.0       eV

 *********************** Population Analysis Parameters ************************
  
 Population analysis with cutoff                :  3.000       A

 *******************************************************************************
  
 
                           -------------------------------
                                      Unit Cell
                           -------------------------------
        Real Lattice(A)                      Reciprocal Lattice(1/A)
   4.2000000   0.0000000   0.0000000        1.4959965   0.0000000   0.0000000
   0.0000000   4.2000000   0.0000000        0.0000000   1.4959965   0.0000000
   0.0000000   0.0000000   4.2000000        0.0000000   0.0000000   1.4959965
 
                       Lattice parameters(A)       Cell Angles
                    a =    4.200000          alpha =   90.000000
                    b =    4.200000          beta  =   90.000000
                    c =    4.200000          gamma =   90.000000
 
                       Current cell volume =   74.088000       A**3
 
                           -------------------------------
                                     Cell Contents
                           -------------------------------
                         Total number of ions in cell =    8
                      Total number of species in cell =    3
                        Max number of any one species =    4
 
            xxxxxxxxxxxxxxxxxxxxxxxxxxxxxxxxxxxxxxxxxxxxxxxxxxxxxxxxxxxx
            x  Element    Atom        Fractional coordinates of atoms  x
            x            Number           u          v          w      x
            x----------------------------------------------------------x
            x  O            1         0.500000   0.500000   0.500000   x 
            x  O            2         0.500000   0.000000   0.000000   x 
            x  O            3         0.500000   0.000000   0.500000   x 
            x  O            4         0.500000   0.500000   0.000000   x 
            x  Mg           1         0.000000   0.500000   0.000000   x 
            x  Mg           2         0.000000   0.500000   0.500000   x 
            x  Ca           1         0.000000   0.000000   0.500000   x 
            x  Ca           2         0.000000   0.000000   0.000000   x 
            xxxxxxxxxxxxxxxxxxxxxxxxxxxxxxxxxxxxxxxxxxxxxxxxxxxxxxxxxxxx
 
 
                         No user defined ionic velocities
 
                           -------------------------------
                                   Details of Species
                           -------------------------------
 
                               Mass of species in AMU
                                    O   15.9994000
                                    Mg   24.3050000
                                    Ca   40.0780000
 
                          Electric Quadrupole Moment (Barn)
                                    O   -0.0255800 Isotope 17
                                    Mg    0.1994000 Isotope 25
                                    Ca   -0.0408000 Isotope 43
 
                          Files used for pseudopotentials:
                                    O 2|1.1|15|18|20|20:21(qc=7)
                                    Mg 3|1.8|7|8|9|20U:30:21:32
                                    Ca 3|2.0|7|8|9|30U:40:31:32
 
                           -------------------------------
                              k-Points For BZ Sampling
                           -------------------------------
                       MP grid size for SCF calculation is  3  3  3
                            with an offset of   0.000  0.000  0.000
                       Number of kpoints used =             8
 
                           -------------------------------
                               Symmetry and Constraints
                           -------------------------------
 
                      Cell is a supercell containing 2 primitive cells
                      Maximum deviation from symmetry = 0.940008E-15     ANG
 
                      Number of symmetry operations   =          16
                      Number of ionic constraints     =           3
                      Point group of crystal =     8: D2h, mmm, 2/m 2/m 2/m
                      Space group of crystal =    47: Pmmm, -P 2 2
 
             Set iprint > 1 for details on symmetry rotations/translations
 
                         Centre of mass is constrained
             Set iprint > 1 for details of linear ionic constraints
 
                         Number of cell constraints= 5
                         Cell constraints are:  1 1 1 0 0 0
 
                         External pressure/stress (GPa)
                          0.00000   0.00000   0.00000
                                    0.00000   0.00000
                                              0.00000
  
+---------------- MEMORY AND SCRATCH DISK ESTIMATES PER PROCESS --------------+
|                                                     Memory          Disk    |
| Baseline code, static data and system overhead      146.0 MB         0.0 MB |
| BLAS internal memory storage                          0.0 MB         0.0 MB |
| Model and support data                              100.7 MB         0.0 MB |
| Electronic energy minimisation requirements          11.1 MB         0.0 MB |
| Force calculation requirements                        1.8 MB         0.0 MB |
| Stress calculation requirements                       2.1 MB         0.0 MB |
|                                               ----------------------------- |
| Approx. total storage required per process          257.8 MB         0.0 MB |
|                                                                             |
| Requirements will fluctuate during execution and may exceed these estimates |
+-----------------------------------------------------------------------------+
Calculating finite basis set correction with  3 cut-off energies.
Calculating total energy with cut-off of  270.000eV.
------------------------------------------------------------------------ <-- SCF
SCF loop      Energy           Fermi           Energy gain       Timer   <-- SCF
                               energy          per atom          (sec)   <-- SCF
------------------------------------------------------------------------ <-- SCF
Initial  -5.72261963E+003  0.00000000E+000                        12.10  <-- SCF
      1  -6.92287251E+003  1.00378753E+001   1.50031609E+002      12.76  <-- SCF
      2  -7.08009215E+003  8.83653382E+000   1.96524558E+001      13.29  <-- SCF
      3  -7.08382550E+003  8.69515180E+000   4.66668673E-001      13.85  <-- SCF
      4  -7.09394806E+003  8.46670916E+000   1.26531941E+000      14.47  <-- SCF
      5  -7.08101822E+003  8.77360284E+000  -1.61622988E+000      15.03  <-- SCF
      6  -7.08091045E+003  9.06656912E+000  -1.34713537E-002      15.62  <-- SCF
      7  -7.08043576E+003  8.73236137E+000  -5.93358552E-002      16.20  <-- SCF
      8  -7.08043117E+003  8.75237245E+000  -5.74432005E-004      16.80  <-- SCF
      9  -7.08043071E+003  8.74606614E+000  -5.65479771E-005      17.38  <-- SCF
     10  -7.08043057E+003  8.74984936E+000  -1.78841024E-005      17.91  <-- SCF
     11  -7.08043055E+003  8.74871179E+000  -2.45430482E-006      18.40  <-- SCF
     12  -7.08043055E+003  8.74859531E+000   5.61070337E-008      18.78  <-- SCF
     13  -7.08043055E+003  8.74863553E+000   8.87276359E-010      19.14  <-- SCF
------------------------------------------------------------------------ <-- SCF
 
Final energy, E             =  -7080.314329721     eV
Final free energy (E-TS)    =  -7080.430551613     eV
(energies not corrected for finite basis set)
 
NB est. 0K energy (E-0.5TS)      =  -7080.372440667     eV
 
Calculating total energy with cut-off of  275.000eV.
------------------------------------------------------------------------ <-- SCF
SCF loop      Energy           Fermi           Energy gain       Timer   <-- SCF
                               energy          per atom          (sec)   <-- SCF
------------------------------------------------------------------------ <-- SCF
Initial  -7.08031433E+003  0.00000000E+000                        19.32  <-- SCF
      1  -7.08364389E+003  8.64191534E+000   4.16195583E-001      19.83  <-- SCF
      2  -7.08365264E+003  8.64193162E+000   1.09290602E-003      20.47  <-- SCF
      3  -7.08385131E+003  9.07832371E+000   2.48343696E-002      21.05  <-- SCF
      4  -7.08362270E+003  8.78443519E+000  -2.85760529E-002      21.64  <-- SCF
      5  -7.08361281E+003  8.76432723E+000  -1.23715805E-003      22.25  <-- SCF
      6  -7.08361165E+003  8.73978269E+000  -1.45075708E-004      22.86  <-- SCF
      7  -7.08361120E+003  8.74674067E+000  -5.59656605E-005      23.43  <-- SCF
      8  -7.08361120E+003  8.74778274E+000  -1.55900779E-007      23.94  <-- SCF
      9  -7.08361120E+003  8.74795244E+000  -1.33075986E-008      24.32  <-- SCF
     10  -7.08361120E+003  8.74788285E+000  -1.40951071E-009      24.69  <-- SCF
------------------------------------------------------------------------ <-- SCF
 
Final energy, E             =  -7083.505649817     eV
Final free energy (E-TS)    =  -7083.611197200     eV
(energies not corrected for finite basis set)
 
NB est. 0K energy (E-0.5TS)      =  -7083.558423509     eV
 
Calculating total energy with cut-off of  280.000eV.
------------------------------------------------------------------------ <-- SCF
SCF loop      Energy           Fermi           Energy gain       Timer   <-- SCF
                               energy          per atom          (sec)   <-- SCF
------------------------------------------------------------------------ <-- SCF
Initial  -7.08350565E+003  0.00000000E+000                        24.86  <-- SCF
      1  -7.08597089E+003  8.66598057E+000   3.08155417E-001      25.34  <-- SCF
      2  -7.08598022E+003  8.66617246E+000   1.16638683E-003      25.91  <-- SCF
      3  -7.08605180E+003  8.87765077E+000   8.94713159E-003      26.51  <-- SCF
      4  -7.08596460E+003  8.73893543E+000  -1.09004861E-002      27.10  <-- SCF
      5  -7.08596118E+003  8.72598265E+000  -4.27339451E-004      27.73  <-- SCF
      6  -7.08596055E+003  8.72456334E+000  -7.83083457E-005      28.31  <-- SCF
      7  -7.08596054E+003  8.72569063E+000  -1.16054317E-006      28.89  <-- SCF
      8  -7.08596054E+003  8.72588559E+000  -3.95115435E-008      29.29  <-- SCF
      9  -7.08596054E+003  8.72584419E+000   4.28653669E-010      29.68  <-- SCF
------------------------------------------------------------------------ <-- SCF
 
Final energy, E             =  -7085.882561249     eV
Final free energy (E-TS)    =  -7085.960542631     eV
(energies not corrected for finite basis set)
 
NB est. 0K energy (E-0.5TS)      =  -7085.921551940     eV
 
 For future reference: finite basis dEtot/dlog(Ecut) =    -137.587049eV
 Total energy corrected for finite basis set =   -7086.115896 eV
 
 ***************** Symmetrised Forces *****************
 *                                                    *
 *            Cartesian components (eV/A)             *
 * -------------------------------------------------- *
 *                   x            y            z      *
 *                                                    *
 * O         1      0.00000      0.00000      0.00000 *
 * O         2      0.00000      0.00000      0.00000 *
 * O         3      0.00000      0.00000      0.00000 *
 * O         4      0.00000      0.00000      0.00000 *
 * Mg        1      0.00000      0.00000      0.00000 *
 * Mg        2      0.00000      0.00000      0.00000 *
 * Ca        1      0.00000      0.00000      0.00000 *
 * Ca        2      0.00000      0.00000      0.00000 *
 *                                                    *
 ******************************************************
 
 *********** Symmetrised Stress Tensor ***********
 *                                               *
 *          Cartesian components (GPa)           *
 * --------------------------------------------- *
 *             x             y             z     *
 *                                               *
 *  x     -5.360587      0.000000      0.000000  *
 *  y      0.000000   -133.934617      0.000000  *
 *  z      0.000000      0.000000   -138.726281  *
 *                                               *
 *  Pressure:   92.6738                          *
 *                                               *
 *************************************************
 
 Pseudo atomic calculation performed for O 2s2 2p4
 
 Converged in 28 iterations to a total energy of -424.4682 eV
 
 
 Pseudo atomic calculation performed for Mg 2s2 2p6 3s2
 
 Converged in 19 iterations to a total energy of -1684.3182 eV
 
 
 Pseudo atomic calculation performed for Ca 3s2 3p6 4s2
 
 Converged in 24 iterations to a total energy of -1001.5365 eV
 
Charge spilling parameter for spin component 1 = 0.36%
 
     Atomic Populations (Mulliken)
     -----------------------------
Species   Ion     s      p      d      f     Total  Charge (e)
==============================================================
  O        1     1.95   4.50   0.00   0.00   6.44    -0.44
  O        2     1.93   4.53   0.00   0.00   6.46    -0.46
  O        3     1.93   4.53   0.00   0.00   6.46    -0.46
  O        4     1.95   4.50   0.00   0.00   6.44    -0.44
  Mg       1     2.66   7.10   0.00   0.00   9.76     0.24
  Mg       2     2.66   7.10   0.00   0.00   9.76     0.24
  Ca       1     1.67   5.85   1.81   0.00   9.34     0.66
  Ca       2     1.67   5.85   1.81   0.00   9.34     0.66
==============================================================
 
            Bond              Population      Length (A)
============================================================
         Ca 1 -- Ca 2              0.18        2.10000
         Mg 2 -- Ca 1             -1.30        2.10000
         Mg 1 -- Ca 2             -1.30        2.10000
         Mg 1 -- Mg 2              0.18        2.10000
          O 4 -- Mg 1              1.15        2.10000
          O 3 -- Ca 1              0.55        2.10000
          O 2 -- Ca 2              0.55        2.10000
          O 2 -- O 4              -0.08        2.10000
          O 2 -- O 3              -0.11        2.10000
          O 1 -- Mg 2              1.15        2.10000
          O 1 -- O 4              -0.03        2.10000
          O 1 -- O 3              -0.08        2.10000
         Mg 2 -- Ca 2             -2.14        2.96985
         Mg 1 -- Ca 1             -2.14        2.96985
          O 4 -- Ca 2             -0.27        2.96985
          O 4 -- Mg 2             -0.70        2.96985
          O 3 -- Ca 2             -0.02        2.96985
          O 3 -- Mg 2             -0.05        2.96985
          O 3 -- O 4              -0.10        2.96985
          O 2 -- Ca 1             -0.02        2.96985
          O 2 -- Mg 1             -0.05        2.96985
          O 1 -- Ca 1             -0.27        2.96985
          O 1 -- Mg 1             -0.70        2.96985
          O 1 -- O 2              -0.10        2.96985
============================================================
 

Writing analysis data to MgO.castep_bin

Writing model to MgO.check
 
 A BibTeX formatted list of references used in this run has been written to 
 MgO.bib
 
Initialisation time =     10.76 s
Calculation time    =     20.72 s
Finalisation time   =      0.50 s
Total time          =     31.98 s
Peak Memory Use     = 604568 kB
 +-------------------------------------------------+
 |                                                 |
 |      CCC   AA    SSS  TTTTT  EEEEE  PPPP        |
 |     C     A  A  S       T    E      P   P       |
 |     C     AAAA   SS     T    EEE    PPPP        |
 |     C     A  A     S    T    E      P           |
 |      CCC  A  A  SSS     T    EEEEE  P           |
 |                                                 |
 +-------------------------------------------------+
 |                                                 |
 | Welcome to Academic Release CASTEP version 9.0  |
 | Ab Initio Total Energy Program                  |
 |                                                 |
 | Authors:                                        |
 | M. Segall, M. Probert, C. Pickard, P. Hasnip,   |
 | S. Clark, K. Refson, J. R. Yates, M. Payne      |
 |                                                 |
 | Contributors:                                   |
 | P. Lindan, P. Haynes, J. White, V. Milman,      |
 | N. Govind, M. Gibson, P. Tulip, V. Cocula,      |
 | B. Montanari, D. Quigley, M. Glover,            |
 | L. Bernasconi, A. Perlov, M. Plummer,           |
 | E. McNellis, J. Meyer, J. Gale, D. Jochym       |
 | J. Aarons, B. Walker, R. Gillen, D. Jones       |
 | T. Green, I. J. Bush, C. J. Armstrong,          |
 | E. J. Higgins, M. D. Hodgson                    |
 |                                                 |
 | Copyright (c) 2000 - 2015                       |
 |                                                 |
 |     Distributed under the terms of an           |
 |     Agreement between the United Kingdom        |
 |     Car-Parrinello (UKCP) Consortium,           |
 |     Daresbury Laboratory and Accelrys, Inc.     |
 |                                                 |
 | Please cite                                     |
 |                                                 |
 |     "First principles methods using CASTEP"     |
 |                                                 |
 |         Zeitschrift fuer Kristallographie       |
 |           220(5-6) pp. 567-570 (2005)           |
 |                                                 |
 | S. J. Clark, M. D. Segall, C. J. Pickard,       |
 | P. J. Hasnip, M. J. Probert, K. Refson,         |
 | M. C. Payne                                     |
 |                                                 |
 |       in all publications arising from          |
 |              your use of CASTEP                 |
 |                                                 |
 +-------------------------------------------------+
 
 
 Compiled for linux_x86_64_ifort12 on Fri, 09 Oct 2015 16:14:59 +0100
 from code version 01cdeb6dcbec+  Thu, 01 Oct 2015 17:06:55 +0100
 Compiler: Intel Fortran 12.1.5.339; Optimisation: fast
 MATHLIBS: Intel MKL(11.0.5) (LAPACK version 3.4.1)
 FFT Lib : default
 Fundamental constants values: CODATA 2010
 
 Run started: Wed, 20 Apr 2016 13:22:08 +0100
 
 Atomic calculation performed for O: 1s2 2s2 2p4
 
 Converged in 60 iterations to an ae energy of -2027.926 eV
 
   ============================================================                
   | Pseudopotential Report - Date of generation 20-04-2016   |                
   ------------------------------------------------------------                
   | Element: O Ionic charge:  6.00 Level of theory: LDA      |                
   | Atomic Solver: Koelling-Harmon                           |                
   |                                                          |                
   |               Reference Electronic Structure             |                
   |         Orbital         Occupation         Energy        |                
   |            2s              2.000           -0.873        |                
   |            2p              4.000           -0.338        |                
   |                                                          |                
   |                 Pseudopotential Definition               |                
   |        Beta     l      e      Rc     scheme   norm       |                
   |          1      0   -0.873   1.100     qc      0         |                
   |          2      0    0.250   1.100     qc      0         |                
   |          3      1   -0.338   1.100     qc      0         |                
   |          4      1    0.250   1.100     qc      0         |                
   |         loc     2    0.000   1.100     pn      0         |                
   |                                                          |                
   | Augmentation charge Rinner = 0.769                       |                
   | Partial core correction Rc = 0.769                       |                
   ------------------------------------------------------------                
   | "2|1.1|15|18|20|20:21(qc=7)"                             |                
   ------------------------------------------------------------                
   |      Author: Chris J. Pickard, Cambridge University      |                
   ============================================================                
 
 Atomic calculation performed for Mg: 1s2 2s2 2p6 3s2
 
 Converged in 47 iterations to an ae energy of -5427.407 eV
 
   ============================================================                
   | Pseudopotential Report - Date of generation 20-04-2016   |                
   ------------------------------------------------------------                
   | Element: Mg Ionic charge: 10.00 Level of theory: LDA     |                
   | Atomic Solver: Koelling-Harmon                           |                
   |                                                          |                
   |               Reference Electronic Structure             |                
   |         Orbital         Occupation         Energy        |                
   |            2s              2.000           -2.914        |                
   |            2p              6.000           -1.717        |                
   |            3s              2.000           -0.176        |                
   |                                                          |                
   |                 Pseudopotential Definition               |                
   |        Beta     l      e      Rc     scheme   norm       |                
   |          1      0   -2.914   1.804     qc      0         |                
   |          2      0   -0.176   1.804     qc      0         |                
   |          3      0    0.250   1.804     qc      0         |                
   |          4      1   -1.717   1.804     qc      0         |                
   |          5      1    0.250   1.804     qc      0         |                
   |          6      2    0.000   1.804     qc      0         |                
   |          7      2    0.250   1.804     qc      0         |                
   |         loc     3    0.000   1.804     pn      0         |                
   |                                                          |                
   | Augmentation charge Rinner = 1.261                       |                
   | Partial core correction Rc = 1.261                       |                
   ------------------------------------------------------------                
   | "3|1.8|7|8|9|20U:30:21:32"                               |                
   ------------------------------------------------------------                
   |      Author: Chris J. Pickard, Cambridge University      |                
   ============================================================                
 
 Atomic calculation performed for Ca: 1s2 2s2 2p6 3s2 3p6 4s2
 
 Converged in 44 iterations to an ae energy of -18468.059 eV
 
   ============================================================                
   | Pseudopotential Report - Date of generation 20-04-2016   |                
   ------------------------------------------------------------                
   | Element: Ca Ionic charge: 10.00 Level of theory: LDA     |                
   | Atomic Solver: Koelling-Harmon                           |                
   |                                                          |                
   |               Reference Electronic Structure             |                
   |         Orbital         Occupation         Energy        |                
   |            3s              2.000           -1.721        |                
   |            3p              6.000           -1.028        |                
   |            4s              2.000           -0.142        |                
   |                                                          |                
   |                 Pseudopotential Definition               |                
   |        Beta     l      e      Rc     scheme   norm       |                
   |          1      0   -1.721   2.005     qc      0         |                
   |          2      0   -0.142   2.005     qc      0         |                
   |          3      0    0.250   2.005     qc      0         |                
   |          4      1   -1.028   2.005     qc      0         |                
   |          5      1    0.250   2.005     qc      0         |                
   |          6      2    0.000   2.005     qc      0         |                
   |          7      2    0.250   2.005     qc      0         |                
   |         loc     3    0.000   2.005     pn      0         |                
   |                                                          |                
   | Augmentation charge Rinner = 1.401                       |                
   | Partial core correction Rc = 1.401                       |                
   ------------------------------------------------------------                
   | "3|2.0|7|8|9|30U:40:31:32"                               |                
   ------------------------------------------------------------                
   |      Author: Chris J. Pickard, Cambridge University      |                
   ============================================================                
 
 Pseudo atomic calculation performed for O 2s2 2p4
 
 Converged in 28 iterations to a total energy of -424.4682 eV
 
 
 Pseudo atomic calculation performed for Mg 2s2 2p6 3s2
 
 Converged in 19 iterations to a total energy of -1684.3182 eV
 
 
 Pseudo atomic calculation performed for Ca 3s2 3p6 4s2
 
 Converged in 24 iterations to a total energy of -1001.5365 eV
 
 Calculation not parallelised.

 ************************************ Title ************************************
 MgO

 ***************************** General Parameters ******************************
  
 output verbosity                               : normal  (1)
 write checkpoint data to                       : MgO.check
 type of calculation                            : single point energy
 stress calculation                             : on
 density difference calculation                 : off
 electron localisation func (ELF) calculation   : off
 Hirshfeld analysis                             : off
 unlimited duration calculation
 timing information                             : on
 memory usage estimate                          : on
 write final potential to formatted file        : off
 write final density to formatted file          : off
 write BibTeX reference list                    : on
 write OTFG pseudopotential files               : on
 checkpoint writing                             : both castep_bin and check files
  
 output         length unit                     : A
 output           mass unit                     : amu
 output           time unit                     : ps
 output         charge unit                     : e
 output           spin unit                     : hbar/2
 output         energy unit                     : eV
 output          force unit                     : eV/A
 output       velocity unit                     : A/ps
 output       pressure unit                     : GPa
 output     inv_length unit                     : 1/A
 output      frequency unit                     : cm-1
 output force constant unit                     : eV/A**2
 output         volume unit                     : A**3
 output   IR intensity unit                     : (D/A)**2/amu
 output         dipole unit                     : D
 output         efield unit                     : eV/A/e
 output        entropy unit                     : J/mol/K
  
 wavefunctions paging                           : none
 random number generator seed                   : randomised (132208769)
 data distribution                              : optimal for this architecture
 optimization strategy                          : maximize speed(+++)

 *********************** Exchange-Correlation Parameters ***********************
  
 using functional                               : Local Density Approximation
 relativistic treatment                         : Koelling-Harmon
 DFT+D: Semi-empirical dispersion correction    : off

 ************************* Pseudopotential Parameters **************************
  
 pseudopotential representation                 : reciprocal space
 <beta|phi> representation                      : reciprocal space
 spin-orbit coupling                            : off

 **************************** Basis Set Parameters *****************************
  
 plane wave basis set cut-off                   :   280.0000   eV
 size of standard grid                          :     2.0000
 size of   fine   gmax                          :    17.1454   1/A
 finite basis set correction                    : automatic
 number of sample energies                      :          3
           sample  spacing                      :     5.0000   eV

 **************************** Electronic Parameters ****************************
  
 number of  electrons                           :  64.00    
 net charge of system                           :  0.000    
 treating system as non-spin-polarized
 number of bands                                :         38

 ********************* Electronic Minimization Parameters **********************
  
 Method: Treating system as metallic with density mixing treatment of electrons,
         and number of  SD  steps               :          1
         and number of  CG  steps               :          4
  
 total energy / atom convergence tol.           : 0.1000E-06   eV
 eigen-energy convergence tolerance             : 0.2500E-07   eV
 max force / atom convergence tol.              : ignored
 convergence tolerance window                   :          3   cycles
 max. number of SCF cycles                      :         60
 number of fixed-spin iterations                :         10
 smearing scheme                                : Gaussian
 smearing width                                 : 0.2000       eV
 Fermi energy convergence tolerance             : 0.2721E-13   eV
 periodic dipole correction                     : NONE

 ************************** Density Mixing Parameters **************************
  
 density-mixing scheme                          : Pulay
 max. length of mixing history                  :         30
 charge density mixing amplitude                : 0.8000    
 cut-off energy for mixing                      :  280.0       eV

 *********************** Population Analysis Parameters ************************
  
 Population analysis with cutoff                :  3.000       A

 *******************************************************************************
  
 
                           -------------------------------
                                      Unit Cell
                           -------------------------------
        Real Lattice(A)                      Reciprocal Lattice(1/A)
   4.2000000   0.0000000   0.0000000        1.4959965   0.0000000   0.0000000
   0.0000000   4.2000000   0.0000000        0.0000000   1.4959965   0.0000000
   0.0000000   0.0000000   4.2000000        0.0000000   0.0000000   1.4959965
 
                       Lattice parameters(A)       Cell Angles
                    a =    4.200000          alpha =   90.000000
                    b =    4.200000          beta  =   90.000000
                    c =    4.200000          gamma =   90.000000
 
                       Current cell volume =   74.088000       A**3
 
                           -------------------------------
                                     Cell Contents
                           -------------------------------
                         Total number of ions in cell =    8
                      Total number of species in cell =    3
                        Max number of any one species =    4
 
            xxxxxxxxxxxxxxxxxxxxxxxxxxxxxxxxxxxxxxxxxxxxxxxxxxxxxxxxxxxx
            x  Element    Atom        Fractional coordinates of atoms  x
            x            Number           u          v          w      x
            x----------------------------------------------------------x
            x  O            1         0.500000   0.500000   0.500000   x 
            x  O            2         0.500000   0.000000   0.000000   x 
            x  O            3         0.500000   0.000000   0.500000   x 
            x  O            4         0.500000   0.500000   0.000000   x 
            x  Mg           1         0.000000   0.500000   0.000000   x 
            x  Mg           2         0.000000   0.500000   0.500000   x 
            x  Ca           1         0.000000   0.000000   0.500000   x 
            x  Ca           2         0.000000   0.000000   0.000000   x 
            xxxxxxxxxxxxxxxxxxxxxxxxxxxxxxxxxxxxxxxxxxxxxxxxxxxxxxxxxxxx
 
 
                         No user defined ionic velocities
 
                           -------------------------------
                                   Details of Species
                           -------------------------------
 
                               Mass of species in AMU
                                    O   15.9994000
                                    Mg   24.3050000
                                    Ca   40.0780000
 
                          Electric Quadrupole Moment (Barn)
                                    O   -0.0255800 Isotope 17
                                    Mg    0.1994000 Isotope 25
                                    Ca   -0.0408000 Isotope 43
 
                          Files used for pseudopotentials:
                                    O 2|1.1|15|18|20|20:21(qc=7)
                                    Mg 3|1.8|7|8|9|20U:30:21:32
                                    Ca 3|2.0|7|8|9|30U:40:31:32
 
                           -------------------------------
                              k-Points For BZ Sampling
                           -------------------------------
                       MP grid size for SCF calculation is  3  3  3
                            with an offset of   0.000  0.000  0.000
                       Number of kpoints used =             8
 
                           -------------------------------
                               Symmetry and Constraints
                           -------------------------------
 
                      Cell is a supercell containing 2 primitive cells
                      Maximum deviation from symmetry = 0.940008E-15     ANG
 
                      Number of symmetry operations   =          16
                      Number of ionic constraints     =           3
                      Point group of crystal =     8: D2h, mmm, 2/m 2/m 2/m
                      Space group of crystal =    47: Pmmm, -P 2 2
 
             Set iprint > 1 for details on symmetry rotations/translations
 
                         Centre of mass is constrained
             Set iprint > 1 for details of linear ionic constraints
 
                         Number of cell constraints= 5
                         Cell constraints are:  1 1 1 0 0 0
 
                         External pressure/stress (GPa)
                          0.00000   0.00000   0.00000
                                    0.00000   0.00000
                                              0.00000
  
+---------------- MEMORY AND SCRATCH DISK ESTIMATES PER PROCESS --------------+
|                                                     Memory          Disk    |
| Baseline code, static data and system overhead      146.0 MB         0.0 MB |
| BLAS internal memory storage                          0.0 MB         0.0 MB |
| Model and support data                              100.7 MB         0.0 MB |
| Electronic energy minimisation requirements          11.1 MB         0.0 MB |
| Force calculation requirements                        1.8 MB         0.0 MB |
| Stress calculation requirements                       2.1 MB         0.0 MB |
|                                               ----------------------------- |
| Approx. total storage required per process          257.8 MB         0.0 MB |
|                                                                             |
| Requirements will fluctuate during execution and may exceed these estimates |
+-----------------------------------------------------------------------------+
Calculating finite basis set correction with  3 cut-off energies.
Calculating total energy with cut-off of  270.000eV.
------------------------------------------------------------------------ <-- SCF
SCF loop      Energy           Fermi           Energy gain       Timer   <-- SCF
                               energy          per atom          (sec)   <-- SCF
------------------------------------------------------------------------ <-- SCF
Initial  -5.73355335E+003  0.00000000E+000                        11.00  <-- SCF
      1  -6.91847228E+003  1.00819426E+001   1.48114866E+002      11.65  <-- SCF
      2  -7.07913780E+003  8.86369363E+000   2.00831908E+001      12.19  <-- SCF
      3  -7.08381787E+003  8.69854090E+000   5.85008700E-001      12.76  <-- SCF
      4  -7.09385573E+003  8.46579581E+000   1.25473184E+000      13.37  <-- SCF
      5  -7.08101726E+003  8.77321069E+000  -1.60480890E+000      13.94  <-- SCF
      6  -7.08090694E+003  9.06597941E+000  -1.37891627E-002      14.54  <-- SCF
      7  -7.08043588E+003  8.73232662E+000  -5.88825323E-002      15.14  <-- SCF
      8  -7.08043117E+003  8.75240471E+000  -5.89442294E-004      15.74  <-- SCF
      9  -7.08043072E+003  8.74606139E+000  -5.65700548E-005      16.33  <-- SCF
     10  -7.08043057E+003  8.74985608E+000  -1.81014147E-005      16.87  <-- SCF
     11  -7.08043055E+003  8.74871673E+000  -2.46081989E-006      17.37  <-- SCF
     12  -7.08043055E+003  8.74859493E+000   5.48699898E-008      17.74  <-- SCF
     13  -7.08043055E+003  8.74863558E+000   8.57694035E-010      18.10  <-- SCF
------------------------------------------------------------------------ <-- SCF
 
Final energy, E             =  -7080.314329555     eV
Final free energy (E-TS)    =  -7080.430551613     eV
(energies not corrected for finite basis set)
 
NB est. 0K energy (E-0.5TS)      =  -7080.372440584     eV
 
Calculating total energy with cut-off of  275.000eV.
------------------------------------------------------------------------ <-- SCF
SCF loop      Energy           Fermi           Energy gain       Timer   <-- SCF
                               energy          per atom          (sec)   <-- SCF
------------------------------------------------------------------------ <-- SCF
Initial  -7.08031433E+003  0.00000000E+000                        18.28  <-- SCF
      1  -7.08364389E+003  8.64191731E+000   4.16195369E-001      18.80  <-- SCF
      2  -7.08365264E+003  8.64193362E+000   1.09291137E-003      19.43  <-- SCF
      3  -7.08385131E+003  9.07831405E+000   2.48338119E-002      20.03  <-- SCF
      4  -7.08362271E+003  8.78444171E+000  -2.85745360E-002      20.61  <-- SCF
      5  -7.08361281E+003  8.76432659E+000  -1.23798373E-003      21.23  <-- SCF
      6  -7.08361165E+003  8.73978343E+000  -1.44992517E-004      21.84  <-- SCF
      7  -7.08361120E+003  8.74674075E+000  -5.59535252E-005      22.42  <-- SCF
      8  -7.08361120E+003  8.74778278E+000  -1.55877190E-007      22.93  <-- SCF
      9  -7.08361120E+003  8.74795245E+000  -1.33016048E-008      23.31  <-- SCF
     10  -7.08361120E+003  8.74788284E+000  -1.41105750E-009      23.68  <-- SCF
------------------------------------------------------------------------ <-- SCF
 
Final energy, E             =  -7083.505649818     eV
Final free energy (E-TS)    =  -7083.611197200     eV
(energies not corrected for finite basis set)
 
NB est. 0K energy (E-0.5TS)      =  -7083.558423509     eV
 
Calculating total energy with cut-off of  280.000eV.
------------------------------------------------------------------------ <-- SCF
SCF loop      Energy           Fermi           Energy gain       Timer   <-- SCF
                               energy          per atom          (sec)   <-- SCF
------------------------------------------------------------------------ <-- SCF
Initial  -7.08350565E+003  0.00000000E+000                        23.86  <-- SCF
      1  -7.08597089E+003  8.66598055E+000   3.08155423E-001      24.33  <-- SCF
      2  -7.08598022E+003  8.66617244E+000   1.16638437E-003      24.91  <-- SCF
      3  -7.08605180E+003  8.87765102E+000   8.94715312E-003      25.51  <-- SCF
      4  -7.08596460E+003  8.73893541E+000  -1.09005129E-002      26.11  <-- SCF
      5  -7.08596118E+003  8.72598267E+000  -4.27337604E-004      26.73  <-- SCF
      6  -7.08596055E+003  8.72456334E+000  -7.83086493E-005      27.31  <-- SCF
      7  -7.08596054E+003  8.72569063E+000  -1.16058629E-006      27.86  <-- SCF
      8  -7.08596054E+003  8.72588559E+000  -3.95105767E-008      28.25  <-- SCF
      9  -7.08596054E+003  8.72584419E+000   4.27686927E-010      28.62  <-- SCF
------------------------------------------------------------------------ <-- SCF
 
Final energy, E             =  -7085.882561249     eV
Final free energy (E-TS)    =  -7085.960542631     eV
(energies not corrected for finite basis set)
 
NB est. 0K energy (E-0.5TS)      =  -7085.921551940     eV
 
 For future reference: finite basis dEtot/dlog(Ecut) =    -137.587049eV
 Total energy corrected for finite basis set =   -7086.115896 eV
 
 ***************** Symmetrised Forces *****************
 *                                                    *
 *            Cartesian components (eV/A)             *
 * -------------------------------------------------- *
 *                   x            y            z      *
 *                                                    *
 * O         1      0.00000      0.00000      0.00000 *
 * O         2      0.00000      0.00000      0.00000 *
 * O         3      0.00000      0.00000      0.00000 *
 * O         4      0.00000      0.00000      0.00000 *
 * Mg        1      0.00000      0.00000      0.00000 *
 * Mg        2      0.00000      0.00000      0.00000 *
 * Ca        1      0.00000      0.00000      0.00000 *
 * Ca        2      0.00000      0.00000      0.00000 *
 *                                                    *
 ******************************************************
 
 *********** Symmetrised Stress Tensor ***********
 *                                               *
 *          Cartesian components (GPa)           *
 * --------------------------------------------- *
 *             x             y             z     *
 *                                               *
 *  x     -5.360587      0.000000      0.000000  *
 *  y      0.000000   -133.934617      0.000000  *
 *  z      0.000000      0.000000   -138.726281  *
 *                                               *
 *  Pressure:   92.6738                          *
 *                                               *
 *************************************************
 
 Pseudo atomic calculation performed for O 2s2 2p4
 
 Converged in 28 iterations to a total energy of -424.4682 eV
 
 
 Pseudo atomic calculation performed for Mg 2s2 2p6 3s2
 
 Converged in 19 iterations to a total energy of -1684.3182 eV
 
 
 Pseudo atomic calculation performed for Ca 3s2 3p6 4s2
 
 Converged in 24 iterations to a total energy of -1001.5365 eV
 
Charge spilling parameter for spin component 1 = 0.36%
 
     Atomic Populations (Mulliken)
     -----------------------------
Species   Ion     s      p      d      f     Total  Charge (e)
==============================================================
  O        1     1.95   4.50   0.00   0.00   6.44    -0.44
  O        2     1.93   4.53   0.00   0.00   6.46    -0.46
  O        3     1.93   4.53   0.00   0.00   6.46    -0.46
  O        4     1.95   4.50   0.00   0.00   6.44    -0.44
  Mg       1     2.66   7.10   0.00   0.00   9.76     0.24
  Mg       2     2.66   7.10   0.00   0.00   9.76     0.24
  Ca       1     1.67   5.85   1.81   0.00   9.34     0.66
  Ca       2     1.67   5.85   1.81   0.00   9.34     0.66
==============================================================
 
            Bond              Population      Length (A)
============================================================
         Ca 1 -- Ca 2              0.18        2.10000
         Mg 2 -- Ca 1             -1.30        2.10000
         Mg 1 -- Ca 2             -1.30        2.10000
         Mg 1 -- Mg 2              0.18        2.10000
          O 4 -- Mg 1              1.15        2.10000
          O 3 -- Ca 1              0.55        2.10000
          O 2 -- Ca 2              0.55        2.10000
          O 2 -- O 4              -0.08        2.10000
          O 2 -- O 3              -0.11        2.10000
          O 1 -- Mg 2              1.15        2.10000
          O 1 -- O 4              -0.03        2.10000
          O 1 -- O 3              -0.08        2.10000
         Mg 2 -- Ca 2             -2.14        2.96985
         Mg 1 -- Ca 1             -2.14        2.96985
          O 4 -- Ca 2             -0.27        2.96985
          O 4 -- Mg 2             -0.70        2.96985
          O 3 -- Ca 2             -0.02        2.96985
          O 3 -- Mg 2             -0.05        2.96985
          O 3 -- O 4              -0.10        2.96985
          O 2 -- Ca 1             -0.02        2.96985
          O 2 -- Mg 1             -0.05        2.96985
          O 1 -- Ca 1             -0.27        2.96985
          O 1 -- Mg 1             -0.70        2.96985
          O 1 -- O 2              -0.10        2.96985
============================================================
 

Writing analysis data to MgO.castep_bin

Writing model to MgO.check
 
 A BibTeX formatted list of references used in this run has been written to 
 MgO.bib
 
Initialisation time =      9.65 s
Calculation time    =     20.69 s
Finalisation time   =      0.60 s
Total time          =     30.94 s
Peak Memory Use     = 604564 kB
