 +-------------------------------------------------+
 |                                                 |
 |      CCC   AA    SSS  TTTTT  EEEEE  PPPP        |
 |     C     A  A  S       T    E      P   P       |
 |     C     AAAA   SS     T    EEE    PPPP        |
 |     C     A  A     S    T    E      P           |
 |      CCC  A  A  SSS     T    EEEEE  P           |
 |                                                 |
 +-------------------------------------------------+
 |                                                 |
 | Welcome to Academic Release CASTEP version 6.1  |
 | Ab Initio Total Energy Program                  |
 |                                                 |
 | Authors:                                        |
 | M. Segall, M. Probert, C. Pickard, P. Hasnip,   |
 | S. Clark, K. Refson, J. R. Yates, M. Payne      |
 |                                                 |
 | Contributors:                                   |
 | P. Lindan, P. Haynes, J. White, V. Milman,      |
 | N. Govind, M. Gibson, P. Tulip, V. Cocula,      |
 | B. Montanari, D. Quigley, M. Glover,            |
 | L. Bernasconi, A. Perlov, M. Plummer,           |
 | E. McNellis, J. Meyer, J. Gale, D. Jochym       |
 | J. Aarons, B. Walker, R. Gillen                 |
 |                                                 |
 | Copyright (c) 2000 - 2012                       |
 |                                                 |
 |     Distributed under the terms of an           |
 |     Agreement between the United Kingdom        |
 |     Car-Parrinello (UKCP) Consortium,           |
 |     Daresbury Laboratory and Accelrys, Inc.     |
 |                                                 |
 | Please cite                                     |
 |                                                 |
 |     "First principles methods using CASTEP"     |
 |                                                 |
 |         Zeitschrift fuer Kristallographie       |
 |           220(5-6) pp. 567-570 (2005)           |
 |                                                 |
 | S. J. Clark, M. D. Segall, C. J. Pickard,       |
 | P. J. Hasnip, M. J. Probert, K. Refson,         |
 | M. C. Payne                                     |
 |                                                 |
 |       in all publications arising from          |
 |              your use of CASTEP                 |
 |                                                 |
 +-------------------------------------------------+


 Compiled for linux_x86_64_gfortran on Wed Nov 21 15:08:09 2012
 from source code version eaed21d6e002+  2012-10-31
 using fast optimisation, fftw3 FFTs and openblas LAPACK and BLAS.


 Atomic calculation performed for O: 1s2 2s2 2p4

 Converged in 60 iterations to an ae energy of -2027.926 eV

   ============================================================                
   | Pseudopotential Report - Date of generation  4-05-2016   |                
   ------------------------------------------------------------                
   | Element: O Ionic charge:  6.00 Level of theory: LDA      |                
   |                                                          |                
   |               Reference Electronic Structure             |                
   |         Orbital         Occupation         Energy        |                
   |            2s              2.000           -0.873        |                
   |            2p              4.000           -0.338        |                
   |                                                          |                
   |                 Pseudopotential Definition               |                
   |        Beta     l      e      Rc     scheme   norm       |                
   |          1      0   -0.873   1.300     qc      0         |                
   |          2      0    0.250   1.300     qc      0         |                
   |          3      1   -0.338   1.300     qc      0         |                
   |          4      1    0.250   1.300     qc      0         |                
   |         loc     2    0.000   1.004     pn      0         |                
   |                                                          |                
   | Augmentation charge Rinner = 0.701                       |                
   | Partial core correction Rc = 0.701                       |                
   ------------------------------------------------------------                
   | "2|1.0|1.3|0.7|13|16|18|20:21(qc=7)"                     |                
   ------------------------------------------------------------                
   |      Author: Chris J. Pickard, Cambridge University      |                
   ============================================================                

 Atomic calculation performed for Mg: 1s2 2s2 2p6 3s2

 Converged in 47 iterations to an ae energy of -5427.407 eV

 Identity difference:   5.17267234911703770E-004

   ============================================================                
   | Pseudopotential Report - Date of generation  4-05-2016   |                
   ------------------------------------------------------------                
   | Element: Mg Ionic charge:  8.00 Level of theory: LDA     |                
   |                                                          |                
   |               Reference Electronic Structure             |                
   |         Orbital         Occupation         Energy        |                
   |            2p              6.000           -1.717        |                
   |            3s              2.000           -0.176        |                
   |                                                          |                
   |                 Pseudopotential Definition               |                
   |        Beta     l      e      Rc     scheme   norm       |                
   |          1      0   -0.176   1.994     qc      1         |                
   |          2      1   -1.717   1.994     qc      0         |                
   |          3      1    0.000   1.994     qc      0         |                
   |          4      1    0.250   1.994     qc      0         |                
   |         loc     2    0.000   1.605     pn      0         |                
   |                                                          |                
   | Augmentation charge Rinner = 1.405                       |                
   | Partial core correction Rc = 1.405                       |                
   ------------------------------------------------------------                
   | "2|1.6|2|1.4|6|7|8|30NH:21U:31UU:32LGG(qc=4.5)[]"        |                
   ------------------------------------------------------------                
   |      Author: Chris J. Pickard, Cambridge University      |                
   ============================================================                

 Doing a self consistent calculation for the test configuration

 Atomic calculation performed for Mg: 1s2 2s2 2p6 3s2

 Converged in 47 iterations to an ae energy of -5427.407 eV

 ---------------------------------------
 AE eigenvalue nl 10 =      -46.06264936
 AE eigenvalue nl 20 =       -2.91364591
 AE eigenvalue nl 21 =       -1.71672732
 AE eigenvalue nl 30 =       -0.17593422
 ---------------------------------------
 PS eigenvalue nl 21 =       -1.71622098
 PS eigenvalue nl 30 =       -0.17592300
 ---------------------------------------

 Atomic calculation performed for Ca: 1s2 2s2 2p6 3s2 3p6 4s2

 Converged in 44 iterations to an ae energy of -18468.058 eV

   ============================================================                
   | Pseudopotential Report - Date of generation  4-05-2016   |                
   ------------------------------------------------------------                
   | Element: Ca Ionic charge: 10.00 Level of theory: LDA     |                
   |                                                          |                
   |               Reference Electronic Structure             |                
   |         Orbital         Occupation         Energy        |                
   |            3s              2.000           -1.721        |                
   |            3p              6.000           -1.028        |                
   |            4s              2.000           -0.142        |                
   |                                                          |                
   |                 Pseudopotential Definition               |                
   |        Beta     l      e      Rc     scheme   norm       |                
   |          1      0   -1.721   2.005     qc      0         |                
   |          2      0   -0.142   2.005     qc      0         |                
   |          3      1   -1.028   2.005     qc      0         |                
   |          4      1    0.250   2.005     qc      0         |                
   |          5      2    0.000   2.005     qc      0         |                
   |          6      2    1.000   2.005     qc      0         |                
   |         loc     3    0.000   1.601     pn      0         |                
   |                                                          |                
   | Augmentation charge Rinner = 1.401                       |                
   | Partial core correction Rc = 1.401                       |                
   ------------------------------------------------------------                
   | "3|1.6|2.0|1.4|7|9|10|30U:40U:31:32U=0U=1.0"             |                
   ------------------------------------------------------------                
   |      Author: Chris J. Pickard, Cambridge University      |                
   ============================================================                

 Pseudo atomic calculation performed for O 2s2 2p4

 Converged in 30 iterations to a total energy of -432.5600 eV


 Pseudo atomic calculation performed for Mg 2p6 3s2

 Converged in 23 iterations to a total energy of -1024.6674 eV


 Pseudo atomic calculation performed for Ca 3s2 3p6 4s2

 Converged in 24 iterations to a total energy of -1000.4575 eV

 Calculation parallelised over 2 processes.
 Data is distributed by k-point(2-way)

 ************************************ Title ************************************
 MgO

 ***************************** General Parameters ******************************
  
 output verbosity                               : normal  (1)
 write checkpoint data to                       : ol_4.check
 type of calculation                            : geometry optimization
 stress calculation                             : on
 density difference calculation                 : off
 electron localisation func (ELF) calculation   : off
 Hirshfeld analysis                             : off
 unlimited duration calculation
 timing information                             : on
 memory usage estimate                          : on
 write final potential to formatted file        : off
 write final density to formatted file          : off
 write BibTeX reference list                    : on
  
 output         length unit                     : A
 output           mass unit                     : amu
 output           time unit                     : ps
 output         charge unit                     : e
 output         energy unit                     : eV
 output          force unit                     : eV/A
 output       velocity unit                     : A/ps
 output       pressure unit                     : GPa
 output     inv_length unit                     : 1/A
 output      frequency unit                     : cm-1
 output force constant unit                     : eV/A**2
 output         volume unit                     : A**3
 output   IR intensity unit                     : (D/A)**2/amu
 output         dipole unit                     : D
 output         efield unit                     : eV/A/e
 output        entropy unit                     : J/mol/K
  
 wavefunctions paging                           : none
 random number generator seed                   : randomised (130324079)
 data distribution                              : optimal for this architecture
 optimization strategy                          : maximize speed(+++)

 *********************** Exchange-Correlation Parameters ***********************
  
 using functional                               : Local Density Approximation
 Divergence correction                          : off
 DFT+D: Semi-empirical dispersion correction    : off

 ************************* Pseudopotential Parameters **************************
  
 pseudopotential representation                 : reciprocal space
 <beta|phi> representation                      : reciprocal space

 **************************** Basis Set Parameters *****************************
  
 plane wave basis set cut-off                   :   450.0000   eV
 size of standard grid                          :     2.0000
 size of   fine   gmax                          :    21.7358   1/A
 largest prime factor in FFT                    :          5
 finite basis set correction                    : automatic
 number of sample energies                      :          3
           sample  spacing                      :     5.0000   eV

 **************************** Electronic Parameters ****************************
  
 number of  electrons                           :  208.0    
 net charge of system                           :  0.000    
 net spin   of system                           :  0.000    
 number of  up  spins                           :  104.0    
 number of down spins                           :  104.0    
 treating system as non-spin-polarized
 number of bands                                :        125

 ********************* Electronic Minimization Parameters **********************
  
 Method: Treating system as metallic with density mixing treatment of electrons,
         and number of  SD  steps               :          1
         and number of  CG  steps               :          4
  
 total energy / atom convergence tol.           : 0.1000E-06   eV
 eigen-energy convergence tolerance             : 0.2596E-07   eV
 max force / atom convergence tol.              : ignored
 convergence tolerance window                   :          3   cycles
 max. number of SCF cycles                      :         60
 number of fixed-spin iterations                :         10
 smearing scheme                                : Gaussian
 smearing width                                 : 0.2000       eV
 Fermi energy convergence tolerance             : 0.2596E-08   eV
 periodic dipole correction                     : NONE

 ************************** Density Mixing Parameters **************************
  
 density-mixing scheme                          : Pulay
 max. length of mixing history                  :         30
 charge density mixing amplitude                : 0.8000    
 cut-off energy for mixing                      :  450.0       eV
 charge density mixing g-vector                 :  1.500       1/A

 *********************** Population Analysis Parameters ************************
  
 Population analysis with cutoff                :  3.000       A

 ********************** Geometry Optimization Parameters ***********************
  
 optimization method                            : BFGS
 variable cell method                           : fixed basis quality
 max. number of steps                           :         30
 estimated bulk modulus                         :  500.0       GPa
 estimated <frequency>                          :  1668.       cm-1
 geom line minimiser                            : on
 with line minimiser tolerance                  :     0.4000
 total energy convergence tolerance             : 0.2000E-04   eV/atom
        max ionic |force| tolerance             : 0.5000E-01   eV/A
 max ionic |displacement| tolerance             : 0.1000E-02   A
   max |stress component| tolerance             : 0.1000       GPa
 convergence tolerance window                   :          2   steps
 backup results every                           :          5   steps

 *******************************************************************************
  

                           -------------------------------
                                      Unit Cell
                           -------------------------------
        Real Lattice(A)                      Reciprocal Lattice(1/A)
   8.4000000   0.0000000   0.0000000        0.7479983   0.0000000   0.0000000
   0.0000000   8.4000000   0.0000000        0.0000000   0.7479983   0.0000000
   0.0000000   0.0000000   8.4000000        0.0000000   0.0000000   0.7479983

                       Lattice parameters(A)       Cell Angles
                    a =    8.400000          alpha =   90.000000
                    b =    8.400000          beta  =   90.000000
                    c =    8.400000          gamma =   90.000000

                       Current cell volume =  592.704000       A**3

                           -------------------------------
                                     Cell Contents
                           -------------------------------
                         Total number of ions in cell =   27
                      Total number of species in cell =    3
                        Max number of any one species =   13

            xxxxxxxxxxxxxxxxxxxxxxxxxxxxxxxxxxxxxxxxxxxxxxxxxxxxxxxxxxxx
            x  Element    Atom        Fractional coordinates of atoms  x
            x            Number           u          v          w      x
            x----------------------------------------------------------x
            x  O            1         0.375000   0.000000   0.000000   x
            x  O            2         0.000000   0.375000   0.000000   x
            x  O            3         0.750000   0.375000   0.000000   x
            x  O            4         0.375000   0.750000   0.000000   x
            x  O            5         0.000000   0.000000   0.375000   x
            x  O            6         0.750000   0.000000   0.375000   x
            x  O            7         0.375000   0.375000   0.375000   x
            x  O            8         0.000000   0.750000   0.375000   x
            x  O            9         0.750000   0.750000   0.375000   x
            x  O           10         0.375000   0.000000   0.750000   x
            x  O           11         0.000000   0.375000   0.750000   x
            x  O           12         0.750000   0.375000   0.750000   x
            x  O           13         0.375000   0.750000   0.750000   x
            x  Mg           1         0.000000   0.000000   0.000000   x
            x  Mg           2         0.750000   0.000000   0.000000   x
            x  Mg           3         0.375000   0.375000   0.000000   x
            x  Mg           4         0.000000   0.750000   0.000000   x
            x  Mg           5         0.750000   0.750000   0.000000   x
            x  Ca           1         0.375000   0.000000   0.375000   x
            x  Ca           2         0.000000   0.375000   0.375000   x
            x  Ca           3         0.750000   0.375000   0.375000   x
            x  Ca           4         0.375000   0.750000   0.375000   x
            x  Ca           5         0.000000   0.000000   0.750000   x
            x  Ca           6         0.750000   0.000000   0.750000   x
            x  Ca           7         0.375000   0.375000   0.750000   x
            x  Ca           8         0.000000   0.750000   0.750000   x
            x  Ca           9         0.750000   0.750000   0.750000   x
            xxxxxxxxxxxxxxxxxxxxxxxxxxxxxxxxxxxxxxxxxxxxxxxxxxxxxxxxxxxx


                         No user defined ionic velocities

                           -------------------------------
                                   Details of Species
                           -------------------------------

                               Mass of species in AMU
                                    O   15.9994000
                                    Mg   24.3050000
                                    Ca   40.0780000

                          Electric Quadrupole Moment (Barn)
                                    O   -0.0255800 Isotope 17
                                    Mg    0.1994000 Isotope 25
                                    Ca   -0.0408000 Isotope 43

                          Files used for pseudopotentials:
                                    O Pseudopotential generated on-the-fly
                                    Mg Pseudopotential generated on-the-fly
                                    Ca Pseudopotential generated on-the-fly

                           -------------------------------
                              k-Points For BZ Sampling
                           -------------------------------
                       MP grid size for SCF calculation is  3  3  3
                         Number of kpoints used =           6

             +++++++++++++++++++++++++++++++++++++++++++++++++++++++
             +  Number       Fractional coordinates        Weight  +
             +-----------------------------------------------------+
             +     1  -0.333333  -0.333333   0.000000   0.1481481  +
             +     2  -0.333333   0.000000  -0.333333   0.2962963  +
             +     3   0.000000   0.000000  -0.333333   0.0740741  +
             +     4   0.000000   0.000000   0.000000   0.0370370  +
             +     5   0.000000   0.333333   0.000000   0.1481481  +
             +     6   0.333333   0.333333  -0.333333   0.2962963  +
             +++++++++++++++++++++++++++++++++++++++++++++++++++++++

                           -------------------------------
                               Symmetry and Constraints
                           -------------------------------

                      Number of symmetry operations   =           8
                      Number of ionic constraints     =           3
                      Maximum deviation from symmetry =  0.00000         ANG
               Point group of crystal =    12: C4v, 4mm, 4 mm
           Set iprint > 1 for details on symmetry rotations/translations

                          Centre of mass is constrained
             Set iprint > 1 for details of linear ionic constraints

                         Number of cell constraints= 5
                         Cell constraints are:  1 1 1 0 0 0

                         External pressure/stress (GPa)
                          0.00000   0.00000   0.00000
                                    0.00000   0.00000
                                              0.00000
  
+---------------- MEMORY AND SCRATCH DISK ESTIMATES PER NODE -----------------+
|                                                     Memory          Disk    |
| Model and support data                              667.1 MB         0.0 MB |
| Electronic energy minimisation requirements         196.1 MB         0.0 MB |
|                                               ----------------------------- |
| Approx. total storage required per node             863.2 MB         0.0 MB |
|                                                                             |
| Requirements will fluctuate during execution and may exceed these estimates |
+-----------------------------------------------------------------------------+
Calculating finite basis set correction with  3 cut-off energies.
Calculating total energy with cut-off of  440.000eV.
------------------------------------------------------------------------ <-- SCF
SCF loop      Energy           Fermi           Energy gain       Timer   <-- SCF
                               energy          per atom          (sec)   <-- SCF
------------------------------------------------------------------------ <-- SCF
Initial  -1.73639624E+004  0.00000000E+000                       150.76  <-- SCF
      1  -1.91285917E+004  4.33174096E+000   6.53566395E+001     338.84  <-- SCF
      2  -1.98050618E+004  9.58716695E-001   2.50544490E+001     409.17  <-- SCF
      3  -1.98453504E+004  7.55361206E-001   1.49216807E+000     485.68  <-- SCF
      4  -1.98538391E+004  2.98199137E+000   3.14397804E-001     986.44  <-- SCF
      5  -1.98312271E+004  2.59601313E+000  -8.37481324E-001    1674.42  <-- SCF
      6  -1.98247144E+004  2.35349947E+000  -2.41211535E-001    2527.91  <-- SCF
      7  -1.98191140E+004  2.31155749E+000  -2.07420892E-001    3512.41  <-- SCF
      8  -1.98181742E+004  2.32067096E+000  -3.48092120E-002    4680.33  <-- SCF
      9  -1.98177495E+004  2.39494355E+000  -1.57307364E-002    5996.80  <-- SCF
     10  -1.98171136E+004  2.44756724E+000  -2.35500219E-002    7556.02  <-- SCF
     11  -1.98167843E+004  2.40252686E+000  -1.21946230E-002    9297.94  <-- SCF
     12  -1.98167764E+004  2.39578040E+000  -2.96166780E-004   10866.72  <-- SCF
     13  -1.98168373E+004  2.37126334E+000   2.25806482E-003   12805.42  <-- SCF
     14  -1.98167655E+004  2.38429770E+000  -2.66156954E-003   14983.41  <-- SCF
     15  -1.98167632E+004  2.38340823E+000  -8.46276801E-005   17581.96  <-- SCF
     16  -1.98167627E+004  2.38504067E+000  -1.87841639E-005   20689.42  <-- SCF
     17  -1.98167625E+004  2.38603826E+000  -4.66569850E-006   23768.60  <-- SCF
     18  -1.98167625E+004  2.38586541E+000   2.14745752E-007   26815.82  <-- SCF
     19  -1.98167625E+004  2.38595987E+000  -4.99445170E-007   29366.17  <-- SCF
     20  -1.98167625E+004  2.38591667E+000   1.34050388E-008   31564.84  <-- SCF
     21  -1.98167625E+004  2.38591261E+000   2.80369671E-010   34135.70  <-- SCF
------------------------------------------------------------------------ <-- SCF
 
Final energy, E             =  -19816.20038592     eV
Final free energy (E-TS)    =  -19816.76253246     eV
(energies not corrected for finite basis set)
 
NB est. 0K energy (E-0.5TS)      =  -19816.48145919     eV
 
Calculating total energy with cut-off of  445.000eV.
------------------------------------------------------------------------ <-- SCF
SCF loop      Energy           Fermi           Energy gain       Timer   <-- SCF
                               energy          per atom          (sec)   <-- SCF
------------------------------------------------------------------------ <-- SCF
Initial  -1.98162004E+004  0.00000000E+000                     36532.91  <-- SCF
      1  -1.98171232E+004  2.38335799E+000   3.41796896E-002   36620.59  <-- SCF
      2  -1.98171234E+004  2.38335711E+000   5.00223021E-006   36681.34  <-- SCF
      3  -1.98171297E+004  2.39048905E+000   2.35499911E-004   36744.15  <-- SCF
      4  -1.98171236E+004  2.38603500E+000  -2.26198487E-004   36807.78  <-- SCF
      5  -1.98171254E+004  2.38428940E+000   6.50850623E-005   36874.07  <-- SCF
      6  -1.98171235E+004  2.38433914E+000  -6.90322012E-005   36935.40  <-- SCF
      7  -1.98171231E+004  2.38512773E+000  -1.40749717E-005   36997.69  <-- SCF
      8  -1.98171233E+004  2.38605315E+000   4.51515912E-006   37060.40  <-- SCF
      9  -1.98171231E+004  2.38653637E+000  -4.97193402E-006   37139.78  <-- SCF
     10  -1.98171231E+004  2.38635972E+000   2.89171698E-007   37372.73  <-- SCF
     11  -1.98171231E+004  2.38580841E+000  -1.44050076E-006   37461.43  <-- SCF
     12  -1.98171231E+004  2.38583981E+000  -1.72655929E-008   37502.85  <-- SCF
     13  -1.98171231E+004  2.38586581E+000  -3.56276867E-009   37542.20  <-- SCF
------------------------------------------------------------------------ <-- SCF
 
Final energy, E             =  -19816.56205520     eV
Final free energy (E-TS)    =  -19817.12309311     eV
(energies not corrected for finite basis set)
 
NB est. 0K energy (E-0.5TS)      =  -19816.84257415     eV
 
Calculating total energy with cut-off of  450.000eV.
------------------------------------------------------------------------ <-- SCF
SCF loop      Energy           Fermi           Energy gain       Timer   <-- SCF
                               energy          per atom          (sec)   <-- SCF
------------------------------------------------------------------------ <-- SCF
Initial  -1.98165621E+004  0.00000000E+000                     37661.91  <-- SCF
      1  -1.98174488E+004  2.38373390E+000   3.28425017E-002   37749.59  <-- SCF
      2  -1.98174489E+004  2.38373266E+000   4.18762192E-006   37811.51  <-- SCF
      3  -1.98174530E+004  2.39023742E+000   1.51400873E-004   37878.43  <-- SCF
      4  -1.98174496E+004  2.38568126E+000  -1.25118445E-004   37939.79  <-- SCF
      5  -1.98174510E+004  2.38455376E+000   5.00652408E-005   38001.55  <-- SCF
      6  -1.98174491E+004  2.38479141E+000  -6.98783848E-005   38059.88  <-- SCF
      7  -1.98174488E+004  2.38534900E+000  -1.13028587E-005   38120.03  <-- SCF
      8  -1.98174489E+004  2.38623877E+000   4.40821430E-006   38179.85  <-- SCF
      9  -1.98174488E+004  2.38670877E+000  -4.94583684E-006   38260.66  <-- SCF
     10  -1.98174488E+004  2.38651243E+000   1.80583733E-007   38728.26  <-- SCF
     11  -1.98174487E+004  2.38593815E+000  -1.37949761E-006   38921.84  <-- SCF
     12  -1.98174487E+004  2.38599237E+000  -9.44503207E-009   38999.55  <-- SCF
     13  -1.98174487E+004  2.38603378E+000  -5.02855093E-009   39975.94  <-- SCF
------------------------------------------------------------------------ <-- SCF
 
Final energy, E             =  -19816.88803958     eV
Final free energy (E-TS)    =  -19817.44873768     eV
(energies not corrected for finite basis set)
 
NB est. 0K energy (E-0.5TS)      =  -19817.16838863     eV
 
 For future reference: finite basis dEtot/dlog(Ecut) =     -29.771347eV
 Total energy corrected for finite basis set =  -19817.443827 eV
 
+---------------- MEMORY AND SCRATCH DISK ESTIMATES PER NODE -----------------+
|                                                     Memory          Disk    |
| Model and support data                              667.1 MB         0.0 MB |
| Electronic energy minimisation requirements         196.1 MB         0.0 MB |
| Geometry minimisation requirements                  273.9 MB         0.0 MB |
|                                               ----------------------------- |
| Approx. total storage required per node            1137.2 MB         0.0 MB |
|                                                                             |
| Requirements will fluctuate during execution and may exceed these estimates |
+-----------------------------------------------------------------------------+
 

 *********************************** Forces ***********************************
 *                                                                            *
 *                        Cartesian components (eV/A)                         *
 * -------------------------------------------------------------------------- *
 *                   x                    y                    z              *
 *                                                                            *
 * O         1     -0.00000             -0.32617              0.05634         *
 * O         2     -0.32617              0.00000              0.05634         *
 * O         3      0.32617              0.00000              0.05634         *
 * O         4     -0.00000              0.32617              0.05634         *
 * O         5      0.23454              0.23454              0.27607         *
 * O         6     -0.23454              0.23454              0.27607         *
 * O         7      0.00000              0.00000              0.50286         *
 * O         8      0.23454             -0.23454              0.27607         *
 * O         9     -0.23454             -0.23454              0.27607         *
 * O        10      0.00000              0.27538             -0.30633         *
 * O        11      0.27538              0.00000             -0.30633         *
 * O        12     -0.27538              0.00000             -0.30633         *
 * O        13      0.00000             -0.27538             -0.30633         *
 * Mg        1      5.90245              5.90245              6.10748         *
 * Mg        2     -5.90245              5.90245              6.10748         *
 * Mg        3      0.00000              0.00000              8.56699         *
 * Mg        4      5.90245             -5.90245              6.10748         *
 * Mg        5     -5.90245             -5.90245              6.10748         *
 * Ca        1      0.00000              9.02703             -0.10757         *
 * Ca        2      9.02703              0.00000             -0.10757         *
 * Ca        3     -9.02703              0.00000             -0.10757         *
 * Ca        4      0.00000             -9.02703             -0.10757         *
 * Ca        5      5.61705              5.61705             -6.17111         *
 * Ca        6     -5.61705              5.61705             -6.17111         *
 * Ca        7      0.00000              0.00000             -8.48935         *
 * Ca        8      5.61705             -5.61705             -6.17111         *
 * Ca        9     -5.61705             -5.61705             -6.17111         *
 *                                                                            *
 ******************************************************************************

 ***************** Stress Tensor *****************
 *                                               *
 *          Cartesian components (GPa)           *
 * --------------------------------------------- *
 *             x             y             z     *
 *                                               *
 *  x     -1.363117      0.000000      0.000000  *
 *  y      0.000000     -1.363117      0.000000  *
 *  z      0.000000      0.000000     -1.645522  *
 *                                               *
 *  Pressure:    1.4573                          *
 *                                               *
 *************************************************

 *********** Constrained Stress Tensor ***********
 *                                               *
 *          Cartesian components (GPa)           *
 * --------------------------------------------- *
 *             x             y             z     *
 *                                               *
 *  x     -1.454395      0.000000      0.000000  *
 *  y      0.000000     -1.454395      0.000000  *
 *  z      0.000000      0.000000     -1.454395  *
 *                                               *
 *  Pressure:    1.4544                          *
 *                                               *
 *************************************************
 BFGS: finished iteration     0 with enthalpy= -1.98174438E+004 eV
  
 +-----------+-----------------+-----------------+------------+-----+ <-- BFGS
 | Parameter |      value      |    tolerance    |    units   | OK? | <-- BFGS
 +-----------+-----------------+-----------------+------------+-----+ <-- BFGS
 |  dE/ion   |   0.000000E+000 |   2.000000E-005 |         eV | No  | <-- BFGS
 |  |F|max   |   1.034307E+001 |   5.000000E-002 |       eV/A | No  | <-- BFGS
 |  |dR|max  |   0.000000E+000 |   1.000000E-003 |          A | No  | <-- BFGS
 |   Smax    |   1.457222E+000 |   1.000000E-001 |        GPa | No  | <-- BFGS
 +-----------+-----------------+-----------------+------------+-----+ <-- BFGS
  

================================================================================
 Starting BFGS iteration          1 ...
================================================================================
  
 +------------+-------------+-------------+-----------------+ <-- min BFGS
 |    Step    |   lambda    |   F.delta   |    enthalpy     | <-- min BFGS
 +------------+-------------+-------------+-----------------+ <-- min BFGS
 |  previous  |    0.000000 |    0.184150 |   -19817.443827 | <-- min BFGS
 +------------+-------------+-------------+-----------------+ <-- min BFGS
  

--------------------------------------------------------------------------------
 BFGS: starting iteration         1 with trial guess (lambda=  1.000000)
--------------------------------------------------------------------------------

                           -------------------------------
                                      Unit Cell
                           -------------------------------
        Real Lattice(A)              Reciprocal Lattice(1/A)
   8.4081604   0.0000000   0.0000000        0.7472723   0.0000000   0.0000000
   0.0000000   8.4081604   0.0000000        0.0000000   0.7472723   0.0000000
   0.0000000   0.0000000   8.4081604        0.0000000   0.0000000   0.7472723

                       Lattice parameters(A)       Cell Angles
                    a =    8.408160          alpha =   90.000000
                    b =    8.408160          beta  =   90.000000
                    c =    8.408160          gamma =   90.000000

                Current cell volume =  594.433081 A**3

                           -------------------------------
                                     Cell Contents
                           -------------------------------

            xxxxxxxxxxxxxxxxxxxxxxxxxxxxxxxxxxxxxxxxxxxxxxxxxxxxxxxxxxxx
            x  Element    Atom        Fractional coordinates of atoms  x
            x            Number           u          v          w      x
            x----------------------------------------------------------x
            x  O            1         0.375000  -0.000148   0.000026   x
            x  O            2        -0.000148   0.375000   0.000026   x
            x  O            3         0.750148   0.375000   0.000026   x
            x  O            4         0.375000   0.750148   0.000026   x
            x  O            5         0.000107   0.000107   0.375126   x
            x  O            6         0.749893   0.000107   0.375126   x
            x  O            7         0.375000   0.375000   0.375229   x
            x  O            8         0.000107   0.749893   0.375126   x
            x  O            9         0.749893   0.749893   0.375126   x
            x  O           10         0.375000   0.000125   0.749861   x
            x  O           11         0.000125   0.375000   0.749861   x
            x  O           12         0.749875   0.375000   0.749861   x
            x  O           13         0.375000   0.749875   0.749861   x
            x  Mg           1         0.002687   0.002687   0.002780   x
            x  Mg           2         0.747313   0.002687   0.002780   x
            x  Mg           3         0.375000   0.375000   0.003900   x
            x  Mg           4         0.002687   0.747313   0.002780   x
            x  Mg           5         0.747313   0.747313   0.002780   x
            x  Ca           1         0.375000   0.004110   0.374951   x
            x  Ca           2         0.004110   0.375000   0.374951   x
            x  Ca           3         0.745890   0.375000   0.374951   x
            x  Ca           4         0.375000   0.745890   0.374951   x
            x  Ca           5         0.002557   0.002557   0.747191   x
            x  Ca           6         0.747443   0.002557   0.747191   x
            x  Ca           7         0.375000   0.375000   0.746135   x
            x  Ca           8         0.002557   0.747443   0.747191   x
            x  Ca           9         0.747443   0.747443   0.747191   x
            xxxxxxxxxxxxxxxxxxxxxxxxxxxxxxxxxxxxxxxxxxxxxxxxxxxxxxxxxxxx


------------------------------------------------------------------------ <-- SCF
SCF loop      Energy           Fermi           Energy gain       Timer   <-- SCF
                               energy          per atom          (sec)   <-- SCF
------------------------------------------------------------------------ <-- SCF
Initial  -1.98032369E+004  0.00000000E+000                     42000.50  <-- SCF
      1  -1.98567757E+004  2.74496586E+000   1.98292083E+000   42112.02  <-- SCF
      2  -1.98571935E+004  2.73738622E+000   1.54715999E-002   42207.49  <-- SCF
      3  -1.98897928E+004  3.54965358E+000   1.20738380E+000   42287.60  <-- SCF
      4  -1.98267065E+004  2.02433622E+000  -2.33653223E+000   42371.46  <-- SCF
      5  -1.98240791E+004  2.57643647E+000  -9.73094187E-002   42447.88  <-- SCF
      6  -1.98233105E+004  2.54965713E+000  -2.84668736E-002   42598.74  <-- SCF
