 +-------------------------------------------------+
 |                                                 |
 |      CCC   AA    SSS  TTTTT  EEEEE  PPPP        |
 |     C     A  A  S       T    E      P   P       |
 |     C     AAAA   SS     T    EEE    PPPP        |
 |     C     A  A     S    T    E      P           |
 |      CCC  A  A  SSS     T    EEEEE  P           |
 |                                                 |
 +-------------------------------------------------+
 |                                                 |
 | Welcome to Academic Release CASTEP version 6.1  |
 | Ab Initio Total Energy Program                  |
 |                                                 |
 | Authors:                                        |
 | M. Segall, M. Probert, C. Pickard, P. Hasnip,   |
 | S. Clark, K. Refson, J. R. Yates, M. Payne      |
 |                                                 |
 | Contributors:                                   |
 | P. Lindan, P. Haynes, J. White, V. Milman,      |
 | N. Govind, M. Gibson, P. Tulip, V. Cocula,      |
 | B. Montanari, D. Quigley, M. Glover,            |
 | L. Bernasconi, A. Perlov, M. Plummer,           |
 | E. McNellis, J. Meyer, J. Gale, D. Jochym       |
 | J. Aarons, B. Walker, R. Gillen                 |
 |                                                 |
 | Copyright (c) 2000 - 2012                       |
 |                                                 |
 |     Distributed under the terms of an           |
 |     Agreement between the United Kingdom        |
 |     Car-Parrinello (UKCP) Consortium,           |
 |     Daresbury Laboratory and Accelrys, Inc.     |
 |                                                 |
 | Please cite                                     |
 |                                                 |
 |     "First principles methods using CASTEP"     |
 |                                                 |
 |         Zeitschrift fuer Kristallographie       |
 |           220(5-6) pp. 567-570 (2005)           |
 |                                                 |
 | S. J. Clark, M. D. Segall, C. J. Pickard,       |
 | P. J. Hasnip, M. J. Probert, K. Refson,         |
 | M. C. Payne                                     |
 |                                                 |
 |       in all publications arising from          |
 |              your use of CASTEP                 |
 |                                                 |
 +-------------------------------------------------+


 Compiled for linux_x86_64_gfortran on Wed Nov 21 15:08:09 2012
 from source code version eaed21d6e002+  2012-10-31
 using fast optimisation, fftw3 FFTs and openblas LAPACK and BLAS.


 Atomic calculation performed for O: 1s2 2s2 2p4

 Converged in 60 iterations to an ae energy of -2027.926 eV

   ============================================================                
   | Pseudopotential Report - Date of generation  6-05-2016   |                
   ------------------------------------------------------------                
   | Element: O Ionic charge:  6.00 Level of theory: LDA      |                
   |                                                          |                
   |               Reference Electronic Structure             |                
   |         Orbital         Occupation         Energy        |                
   |            2s              2.000           -0.873        |                
   |            2p              4.000           -0.338        |                
   |                                                          |                
   |                 Pseudopotential Definition               |                
   |        Beta     l      e      Rc     scheme   norm       |                
   |          1      0   -0.873   1.300     qc      0         |                
   |          2      0    0.250   1.300     qc      0         |                
   |          3      1   -0.338   1.300     qc      0         |                
   |          4      1    0.250   1.300     qc      0         |                
   |         loc     2    0.000   1.004     pn      0         |                
   |                                                          |                
   | Augmentation charge Rinner = 0.701                       |                
   | Partial core correction Rc = 0.701                       |                
   ------------------------------------------------------------                
   | "2|1.0|1.3|0.7|13|16|18|20:21(qc=7)"                     |                
   ------------------------------------------------------------                
   |      Author: Chris J. Pickard, Cambridge University      |                
   ============================================================                

 Atomic calculation performed for Mg: 1s2 2s2 2p6 3s2

 Converged in 47 iterations to an ae energy of -5427.407 eV

 Identity difference:   5.17267234911703770E-004

   ============================================================                
   | Pseudopotential Report - Date of generation  6-05-2016   |                
   ------------------------------------------------------------                
   | Element: Mg Ionic charge:  8.00 Level of theory: LDA     |                
   |                                                          |                
   |               Reference Electronic Structure             |                
   |         Orbital         Occupation         Energy        |                
   |            2p              6.000           -1.717        |                
   |            3s              2.000           -0.176        |                
   |                                                          |                
   |                 Pseudopotential Definition               |                
   |        Beta     l      e      Rc     scheme   norm       |                
   |          1      0   -0.176   1.994     qc      1         |                
   |          2      1   -1.717   1.994     qc      0         |                
   |          3      1    0.000   1.994     qc      0         |                
   |          4      1    0.250   1.994     qc      0         |                
   |         loc     2    0.000   1.605     pn      0         |                
   |                                                          |                
   | Augmentation charge Rinner = 1.405                       |                
   | Partial core correction Rc = 1.405                       |                
   ------------------------------------------------------------                
   | "2|1.6|2|1.4|6|7|8|30NH:21U:31UU:32LGG(qc=4.5)[]"        |                
   ------------------------------------------------------------                
   |      Author: Chris J. Pickard, Cambridge University      |                
   ============================================================                

 Doing a self consistent calculation for the test configuration

 Atomic calculation performed for Mg: 1s2 2s2 2p6 3s2

 Converged in 47 iterations to an ae energy of -5427.407 eV

 ---------------------------------------
 AE eigenvalue nl 10 =      -46.06264936
 AE eigenvalue nl 20 =       -2.91364591
 AE eigenvalue nl 21 =       -1.71672732
 AE eigenvalue nl 30 =       -0.17593422
 ---------------------------------------
 PS eigenvalue nl 21 =       -1.71622098
 PS eigenvalue nl 30 =       -0.17592300
 ---------------------------------------

 Atomic calculation performed for Ca: 1s2 2s2 2p6 3s2 3p6 4s2

 Converged in 44 iterations to an ae energy of -18468.058 eV

   ============================================================                
   | Pseudopotential Report - Date of generation  6-05-2016   |                
   ------------------------------------------------------------                
   | Element: Ca Ionic charge: 10.00 Level of theory: LDA     |                
   |                                                          |                
   |               Reference Electronic Structure             |                
   |         Orbital         Occupation         Energy        |                
   |            3s              2.000           -1.721        |                
   |            3p              6.000           -1.028        |                
   |            4s              2.000           -0.142        |                
   |                                                          |                
   |                 Pseudopotential Definition               |                
   |        Beta     l      e      Rc     scheme   norm       |                
   |          1      0   -1.721   2.005     qc      0         |                
   |          2      0   -0.142   2.005     qc      0         |                
   |          3      1   -1.028   2.005     qc      0         |                
   |          4      1    0.250   2.005     qc      0         |                
   |          5      2    0.000   2.005     qc      0         |                
   |          6      2    1.000   2.005     qc      0         |                
   |         loc     3    0.000   1.601     pn      0         |                
   |                                                          |                
   | Augmentation charge Rinner = 1.401                       |                
   | Partial core correction Rc = 1.401                       |                
   ------------------------------------------------------------                
   | "3|1.6|2.0|1.4|7|9|10|30U:40U:31:32U=0U=1.0"             |                
   ------------------------------------------------------------                
   |      Author: Chris J. Pickard, Cambridge University      |                
   ============================================================                

 Pseudo atomic calculation performed for O 2s2 2p4

 Converged in 30 iterations to a total energy of -432.5600 eV


 Pseudo atomic calculation performed for Mg 2p6 3s2

 Converged in 23 iterations to a total energy of -1024.6674 eV


 Pseudo atomic calculation performed for Ca 3s2 3p6 4s2

 Converged in 24 iterations to a total energy of -1000.4575 eV

 Calculation parallelised over 2 processes.
 Data is distributed by k-point(2-way)

 ************************************ Title ************************************
 MgO

 ***************************** General Parameters ******************************
  
 output verbosity                               : normal  (1)
 write checkpoint data to                       : test_5.check
 type of calculation                            : geometry optimization
 stress calculation                             : on
 density difference calculation                 : off
 electron localisation func (ELF) calculation   : off
 Hirshfeld analysis                             : off
 unlimited duration calculation
 timing information                             : on
 memory usage estimate                          : on
 write final potential to formatted file        : off
 write final density to formatted file          : off
 write BibTeX reference list                    : on
  
 output         length unit                     : A
 output           mass unit                     : amu
 output           time unit                     : ps
 output         charge unit                     : e
 output         energy unit                     : eV
 output          force unit                     : eV/A
 output       velocity unit                     : A/ps
 output       pressure unit                     : GPa
 output     inv_length unit                     : 1/A
 output      frequency unit                     : cm-1
 output force constant unit                     : eV/A**2
 output         volume unit                     : A**3
 output   IR intensity unit                     : (D/A)**2/amu
 output         dipole unit                     : D
 output         efield unit                     : eV/A/e
 output        entropy unit                     : J/mol/K
  
 wavefunctions paging                           : none
 random number generator seed                   : randomised (12324094)
 data distribution                              : optimal for this architecture
 optimization strategy                          : maximize speed(+++)

 *********************** Exchange-Correlation Parameters ***********************
  
 using functional                               : Local Density Approximation
 Divergence correction                          : off
 DFT+D: Semi-empirical dispersion correction    : off

 ************************* Pseudopotential Parameters **************************
  
 pseudopotential representation                 : reciprocal space
 <beta|phi> representation                      : reciprocal space

 **************************** Basis Set Parameters *****************************
  
 plane wave basis set cut-off                   :   450.0000   eV
 size of standard grid                          :     2.0000
 size of   fine   gmax                          :    21.7358   1/A
 largest prime factor in FFT                    :          5
 finite basis set correction                    : automatic
 number of sample energies                      :          3
           sample  spacing                      :     5.0000   eV

 **************************** Electronic Parameters ****************************
  
 number of  electrons                           :  206.0    
 net charge of system                           :  0.000    
 net spin   of system                           :  0.000    
 number of  up  spins                           :  103.0    
 number of down spins                           :  103.0    
 treating system as non-spin-polarized
 number of bands                                :        124

 ********************* Electronic Minimization Parameters **********************
  
 Method: Treating system as metallic with density mixing treatment of electrons,
         and number of  SD  steps               :          1
         and number of  CG  steps               :          4
  
 total energy / atom convergence tol.           : 0.1000E-06   eV
 eigen-energy convergence tolerance             : 0.2621E-07   eV
 max force / atom convergence tol.              : ignored
 convergence tolerance window                   :          3   cycles
 max. number of SCF cycles                      :         60
 number of fixed-spin iterations                :         10
 smearing scheme                                : Gaussian
 smearing width                                 : 0.2000       eV
 Fermi energy convergence tolerance             : 0.2621E-08   eV
 periodic dipole correction                     : NONE

 ************************** Density Mixing Parameters **************************
  
 density-mixing scheme                          : Pulay
 max. length of mixing history                  :         30
 charge density mixing amplitude                : 0.8000    
 cut-off energy for mixing                      :  450.0       eV
 charge density mixing g-vector                 :  1.500       1/A

 *********************** Population Analysis Parameters ************************
  
 Population analysis with cutoff                :  3.000       A

 ********************** Geometry Optimization Parameters ***********************
  
 optimization method                            : BFGS
 variable cell method                           : fixed basis quality
 max. number of steps                           :         30
 estimated bulk modulus                         :  500.0       GPa
 estimated <frequency>                          :  1668.       cm-1
 geom line minimiser                            : on
 with line minimiser tolerance                  :     0.4000
 total energy convergence tolerance             : 0.2000E-04   eV/atom
        max ionic |force| tolerance             : 0.5000E-01   eV/A
 max ionic |displacement| tolerance             : 0.1000E-02   A
   max |stress component| tolerance             : 0.1000       GPa
 convergence tolerance window                   :          2   steps
 backup results every                           :          5   steps

 *******************************************************************************
  

                           -------------------------------
                                      Unit Cell
                           -------------------------------
        Real Lattice(A)                      Reciprocal Lattice(1/A)
   8.4000000   0.0000000   0.0000000        0.7479983   0.0000000   0.0000000
   0.0000000   8.4000000   0.0000000        0.0000000   0.7479983   0.0000000
   0.0000000   0.0000000   8.4000000        0.0000000   0.0000000   0.7479983

                       Lattice parameters(A)       Cell Angles
                    a =    8.400000          alpha =   90.000000
                    b =    8.400000          beta  =   90.000000
                    c =    8.400000          gamma =   90.000000

                       Current cell volume =  592.704000       A**3

                           -------------------------------
                                     Cell Contents
                           -------------------------------
                         Total number of ions in cell =   27
                      Total number of species in cell =    3
                        Max number of any one species =   14

            xxxxxxxxxxxxxxxxxxxxxxxxxxxxxxxxxxxxxxxxxxxxxxxxxxxxxxxxxxxx
            x  Element    Atom        Fractional coordinates of atoms  x
            x            Number           u          v          w      x
            x----------------------------------------------------------x
            x  O            1         0.000000   0.000000   0.000000   x
            x  O            2         0.666667   0.000000   0.000000   x
            x  O            3         0.333333   0.333333   0.000000   x
            x  O            4         0.000000   0.666667   0.000000   x
            x  O            5         0.666667   0.666667   0.000000   x
            x  O            6         0.333333   0.000000   0.333333   x
            x  O            7         0.000000   0.333333   0.333333   x
            x  O            8         0.666667   0.333333   0.333333   x
            x  O            9         0.333333   0.666667   0.333333   x
            x  O           10         0.000000   0.000000   0.666667   x
            x  O           11         0.666667   0.000000   0.666667   x
            x  O           12         0.333333   0.333333   0.666667   x
            x  O           13         0.000000   0.666667   0.666667   x
            x  O           14         0.666667   0.666667   0.666667   x
            x  Mg           1         0.333333   0.000000   0.000000   x
            x  Mg           2         0.000000   0.333333   0.000000   x
            x  Mg           3         0.666667   0.333333   0.000000   x
            x  Mg           4         0.333333   0.666667   0.000000   x
            x  Ca           1         0.000000   0.000000   0.333333   x
            x  Ca           2         0.666667   0.000000   0.333333   x
            x  Ca           3         0.333333   0.333333   0.333333   x
            x  Ca           4         0.000000   0.666667   0.333333   x
            x  Ca           5         0.666667   0.666667   0.333333   x
            x  Ca           6         0.333333   0.000000   0.666667   x
            x  Ca           7         0.000000   0.333333   0.666667   x
            x  Ca           8         0.666667   0.333333   0.666667   x
            x  Ca           9         0.333333   0.666667   0.666667   x
            xxxxxxxxxxxxxxxxxxxxxxxxxxxxxxxxxxxxxxxxxxxxxxxxxxxxxxxxxxxx


                         No user defined ionic velocities

                           -------------------------------
                                   Details of Species
                           -------------------------------

                               Mass of species in AMU
                                    O   15.9994000
                                    Mg   24.3050000
                                    Ca   40.0780000

                          Electric Quadrupole Moment (Barn)
                                    O   -0.0255800 Isotope 17
                                    Mg    0.1994000 Isotope 25
                                    Ca   -0.0408000 Isotope 43

                          Files used for pseudopotentials:
                                    O Pseudopotential generated on-the-fly
                                    Mg Pseudopotential generated on-the-fly
                                    Ca Pseudopotential generated on-the-fly

                           -------------------------------
                              k-Points For BZ Sampling
                           -------------------------------
                       MP grid size for SCF calculation is  3  3  3
                         Number of kpoints used =           6

             +++++++++++++++++++++++++++++++++++++++++++++++++++++++
             +  Number       Fractional coordinates        Weight  +
             +-----------------------------------------------------+
             +     1  -0.333333  -0.333333   0.000000   0.1481481  +
             +     2  -0.333333   0.000000  -0.333333   0.2962963  +
             +     3   0.000000   0.000000  -0.333333   0.0740741  +
             +     4   0.000000   0.000000   0.000000   0.0370370  +
             +     5   0.000000   0.333333   0.000000   0.1481481  +
             +     6   0.333333   0.333333  -0.333333   0.2962963  +
             +++++++++++++++++++++++++++++++++++++++++++++++++++++++

                           -------------------------------
                               Symmetry and Constraints
                           -------------------------------

                      Number of symmetry operations   =           8
                      Number of ionic constraints     =           3
                      Maximum deviation from symmetry = 0.839999E-09     ANG
               Point group of crystal =    12: C4v, 4mm, 4 mm
           Set iprint > 1 for details on symmetry rotations/translations

                          Centre of mass is constrained
             Set iprint > 1 for details of linear ionic constraints

                         Number of cell constraints= 5
                         Cell constraints are:  1 1 1 0 0 0

                         External pressure/stress (GPa)
                          0.00000   0.00000   0.00000
                                    0.00000   0.00000
                                              0.00000
  
+---------------- MEMORY AND SCRATCH DISK ESTIMATES PER NODE -----------------+
|                                                     Memory          Disk    |
| Model and support data                              666.1 MB         0.0 MB |
| Electronic energy minimisation requirements         194.7 MB         0.0 MB |
|                                               ----------------------------- |
| Approx. total storage required per node             860.8 MB         0.0 MB |
|                                                                             |
| Requirements will fluctuate during execution and may exceed these estimates |
+-----------------------------------------------------------------------------+
Calculating finite basis set correction with  3 cut-off energies.
Calculating total energy with cut-off of  440.000eV.
------------------------------------------------------------------------ <-- SCF
SCF loop      Energy           Fermi           Energy gain       Timer   <-- SCF
                               energy          per atom          (sec)   <-- SCF
------------------------------------------------------------------------ <-- SCF
Initial  -1.68518165E+004  0.00000000E+000                        36.33  <-- SCF
      1  -1.85629568E+004  4.63991491E+000   6.33755659E+001     100.33  <-- SCF
      2  -1.92798771E+004 -2.92957556E-001   2.65526056E+001     148.30  <-- SCF
      3  -1.93085366E+004 -5.97144132E-001   1.06146112E+000     196.49  <-- SCF
      4  -1.93794036E+004  4.02588903E+000   2.62470514E+000     257.69  <-- SCF
      5  -1.92815632E+004  1.72033971E+000  -3.62371898E+000     320.74  <-- SCF
      6  -1.92852681E+004  1.72829972E+000   1.37218919E-001     372.32  <-- SCF
      7  -1.92813918E+004  1.17263298E+000  -1.43567506E-001     430.23  <-- SCF
      8  -1.92781591E+004  1.29971614E+000  -1.19729920E-001     488.57  <-- SCF
      9  -1.92771299E+004  1.40952237E+000  -3.81186958E-002     549.80  <-- SCF
     10  -1.92765259E+004  1.53278563E+000  -2.23712084E-002     609.15  <-- SCF
     11  -1.92761872E+004  1.49016464E+000  -1.25443487E-002     669.89  <-- SCF
     12  -1.92761090E+004  1.54205290E+000  -2.89715567E-003     727.48  <-- SCF
     13  -1.92760620E+004  1.51413800E+000  -1.74060230E-003     784.66  <-- SCF
     14  -1.92759817E+004  1.52626414E+000  -2.97331108E-003     844.51  <-- SCF
     15  -1.92759756E+004  1.52806243E+000  -2.23326945E-004     906.89  <-- SCF
     16  -1.92759697E+004  1.52628128E+000  -2.19148864E-004     964.57  <-- SCF
     17  -1.92759695E+004  1.52796148E+000  -8.22613312E-006    1027.69  <-- SCF
     18  -1.92759695E+004  1.52856735E+000  -1.48454080E-006    1082.88  <-- SCF
     19  -1.92759694E+004  1.52862023E+000  -1.06392820E-006    1122.75  <-- SCF
     20  -1.92759694E+004  1.52869724E+000  -4.42544105E-008    1160.55  <-- SCF
     21  -1.92759694E+004  1.52862919E+000   2.28580913E-010    1197.89  <-- SCF
------------------------------------------------------------------------ <-- SCF
 
Final energy, E             =  -19275.19600204     eV
Final free energy (E-TS)    =  -19275.96943606     eV
(energies not corrected for finite basis set)
 
NB est. 0K energy (E-0.5TS)      =  -19275.58271905     eV
 
Calculating total energy with cut-off of  445.000eV.
------------------------------------------------------------------------ <-- SCF
SCF loop      Energy           Fermi           Energy gain       Timer   <-- SCF
                               energy          per atom          (sec)   <-- SCF
------------------------------------------------------------------------ <-- SCF
Initial  -1.92751960E+004  0.00000000E+000                      1214.32  <-- SCF
      1  -1.92763524E+004  1.52470614E+000   4.28277755E-002    1259.69  <-- SCF
      2  -1.92763525E+004  1.52470790E+000   4.60165436E-006    1311.72  <-- SCF
      3  -1.92763575E+004  1.53742114E+000   1.86265290E-004    1364.25  <-- SCF
      4  -1.92763568E+004  1.53726720E+000  -2.44522572E-005    1416.70  <-- SCF
      5  -1.92763564E+004  1.52054629E+000  -1.81192157E-005    1474.01  <-- SCF
      6  -1.92763564E+004  1.51609010E+000   9.78040897E-007    1526.43  <-- SCF
      7  -1.92763523E+004  1.52635307E+000  -1.52518688E-004    1580.62  <-- SCF
      8  -1.92763523E+004  1.53114217E+000   3.01954126E-007    1641.44  <-- SCF
      9  -1.92763532E+004  1.53130532E+000   3.50519453E-005    1692.57  <-- SCF
     10  -1.92763522E+004  1.52875584E+000  -3.82738660E-005    1740.96  <-- SCF
     11  -1.92763523E+004  1.52864365E+000   3.86264906E-006    1790.80  <-- SCF
     12  -1.92763522E+004  1.52866354E+000  -1.96197082E-006    1835.22  <-- SCF
     13  -1.92763522E+004  1.52891705E+000  -7.34149187E-008    1872.84  <-- SCF
     14  -1.92763522E+004  1.52903421E+000  -6.57980756E-009    1908.11  <-- SCF
------------------------------------------------------------------------ <-- SCF
 
Final energy, E             =  -19275.57846759     eV
Final free energy (E-TS)    =  -19276.35223276     eV
(energies not corrected for finite basis set)
 
NB est. 0K energy (E-0.5TS)      =  -19275.96535017     eV
 
Calculating total energy with cut-off of  450.000eV.
------------------------------------------------------------------------ <-- SCF
SCF loop      Energy           Fermi           Energy gain       Timer   <-- SCF
                               energy          per atom          (sec)   <-- SCF
------------------------------------------------------------------------ <-- SCF
Initial  -1.92755785E+004  0.00000000E+000                      1924.52  <-- SCF
      1  -1.92766964E+004  1.52407588E+000   4.14043634E-002    1970.48  <-- SCF
      2  -1.92766965E+004  1.52407755E+000   4.51601535E-006    2025.92  <-- SCF
      3  -1.92767129E+004  1.54928683E+000   6.05794318E-004    2082.53  <-- SCF
      4  -1.92767008E+004  1.53454846E+000  -4.48188233E-004    2136.93  <-- SCF
      5  -1.92766979E+004  1.52380584E+000  -1.06222182E-004    2193.49  <-- SCF
      6  -1.92766992E+004  1.52312948E+000   4.76389159E-005    2250.56  <-- SCF
      7  -1.92766962E+004  1.52678754E+000  -1.11566785E-004    2304.94  <-- SCF
      8  -1.92766970E+004  1.52604905E+000   3.16245205E-005    2359.92  <-- SCF
      9  -1.92766962E+004  1.53278677E+000  -3.15747105E-005    2411.58  <-- SCF
     10  -1.92766964E+004  1.53069093E+000   6.95982110E-006    2461.38  <-- SCF
     11  -1.92766961E+004  1.52917390E+000  -8.97852008E-006    2510.74  <-- SCF
     12  -1.92766961E+004  1.52864583E+000   1.59153385E-007    2562.63  <-- SCF
     13  -1.92766961E+004  1.52893282E+000  -2.88910233E-007    2598.10  <-- SCF
     14  -1.92766961E+004  1.52920653E+000  -1.01895528E-008    2633.94  <-- SCF
     15  -1.92766961E+004  1.52924461E+000  -5.70707533E-010    2669.35  <-- SCF
------------------------------------------------------------------------ <-- SCF
 
Final energy, E             =  -19275.92207842     eV
Final free energy (E-TS)    =  -19276.69610781     eV
(energies not corrected for finite basis set)
 
NB est. 0K energy (E-0.5TS)      =  -19276.30909311     eV
 
 For future reference: finite basis dEtot/dlog(Ecut) =     -31.527214eV
 Total energy corrected for finite basis set =  -19276.690907 eV
 
+---------------- MEMORY AND SCRATCH DISK ESTIMATES PER NODE -----------------+
|                                                     Memory          Disk    |
| Model and support data                              666.1 MB         0.0 MB |
| Electronic energy minimisation requirements         194.7 MB         0.0 MB |
| Geometry minimisation requirements                  271.8 MB         0.0 MB |
|                                               ----------------------------- |
| Approx. total storage required per node            1132.6 MB         0.0 MB |
|                                                                             |
| Requirements will fluctuate during execution and may exceed these estimates |
+-----------------------------------------------------------------------------+
 

 *********************************** Forces ***********************************
 *                                                                            *
 *                        Cartesian components (eV/A)                         *
 * -------------------------------------------------------------------------- *
 *                   x                    y                    z              *
 *                                                                            *
 * O         1      1.21078              1.21078              1.35282         *
 * O         2     -1.21078              1.21078              1.35282         *
 * O         3      0.00000              0.00000              0.99685         *
 * O         4      1.21078             -1.21078              1.35282         *
 * O         5     -1.21078             -1.21078              1.35282         *
 * O         6      0.00000              1.19607              0.41831         *
 * O         7      1.19607              0.00000              0.41831         *
 * O         8     -1.19607              0.00000              0.41831         *
 * O         9     -0.00000             -1.19607              0.41831         *
 * O        10      1.37713              1.37713             -1.70046         *
 * O        11     -1.37713              1.37713             -1.70046         *
 * O        12      0.00000              0.00000             -1.31332         *
 * O        13      1.37713             -1.37713             -1.70046         *
 * O        14     -1.37713             -1.37713             -1.70046         *
 * Mg        1      0.00000              1.63548              2.65823         *
 * Mg        2      1.63548              0.00000              2.65823         *
 * Mg        3     -1.63548              0.00000              2.65823         *
 * Mg        4      0.00000             -1.63548              2.65823         *
 * Ca        1      3.40543              3.40543             -0.09856         *
 * Ca        2     -3.40543              3.40543             -0.09856         *
 * Ca        3      0.00000              0.00000             -0.26050         *
 * Ca        4      3.40543             -3.40543             -0.09856         *
 * Ca        5     -3.40543             -3.40543             -0.09856         *
 * Ca        6      0.00000              3.21963             -2.48609         *
 * Ca        7      3.21963             -0.00000             -2.48609         *
 * Ca        8     -3.21963              0.00000             -2.48609         *
 * Ca        9      0.00000             -3.21963             -2.48609         *
 *                                                                            *
 ******************************************************************************

 ***************** Stress Tensor *****************
 *                                               *
 *          Cartesian components (GPa)           *
 * --------------------------------------------- *
 *             x             y             z     *
 *                                               *
 *  x     14.689030      0.000000      0.000000  *
 *  y      0.000000     14.689030      0.000000  *
 *  z      0.000000      0.000000     15.158744  *
 *                                               *
 *  Pressure:  -14.8456                          *
 *                                               *
 *************************************************

 *********** Constrained Stress Tensor ***********
 *                                               *
 *          Cartesian components (GPa)           *
 * --------------------------------------------- *
 *             x             y             z     *
 *                                               *
 *  x     15.143962      0.000000      0.000000  *
 *  y      0.000000     15.143962      0.000000  *
 *  z      0.000000      0.000000     15.143962  *
 *                                               *
 *  Pressure:  -15.1440                          *
 *                                               *
 *************************************************
 BFGS: finished iteration     0 with enthalpy= -1.92766909E+004 eV
  
 +-----------+-----------------+-----------------+------------+-----+ <-- BFGS
 | Parameter |      value      |    tolerance    |    units   | OK? | <-- BFGS
 +-----------+-----------------+-----------------+------------+-----+ <-- BFGS
 |  dE/ion   |   0.000000E+000 |   2.000000E-005 |         eV | No  | <-- BFGS
 |  |F|max   |   4.817020E+000 |   5.000000E-002 |       eV/A | No  | <-- BFGS
 |  |dR|max  |   0.000000E+000 |   1.000000E-003 |          A | No  | <-- BFGS
 |   Smax    |   1.484568E+001 |   1.000000E-001 |        GPa | No  | <-- BFGS
 +-----------+-----------------+-----------------+------------+-----+ <-- BFGS
  

================================================================================
 Starting BFGS iteration          1 ...
================================================================================
  
 +------------+-------------+-------------+-----------------+ <-- min BFGS
 |    Step    |   lambda    |   F.delta   |    enthalpy     | <-- min BFGS
 +------------+-------------+-------------+-----------------+ <-- min BFGS
 |  previous  |    0.000000 |    0.095908 |   -19276.690907 | <-- min BFGS
 +------------+-------------+-------------+-----------------+ <-- min BFGS
  

--------------------------------------------------------------------------------
 BFGS: starting iteration         1 with trial guess (lambda=  1.000000)
--------------------------------------------------------------------------------

                           -------------------------------
                                      Unit Cell
                           -------------------------------
        Real Lattice(A)              Reciprocal Lattice(1/A)
   8.3168642   0.0000000   0.0000000        0.7554753   0.0000000   0.0000000
   0.0000000   8.3168642   0.0000000        0.0000000   0.7554753   0.0000000
   0.0000000   0.0000000   8.3168642        0.0000000   0.0000000   0.7554753

                       Lattice parameters(A)       Cell Angles
                    a =    8.316864          alpha =   90.000000
                    b =    8.316864          beta  =   90.000000
                    c =    8.316864          gamma =   90.000000

                Current cell volume =  575.279406 A**3

                           -------------------------------
                                     Cell Contents
                           -------------------------------

            xxxxxxxxxxxxxxxxxxxxxxxxxxxxxxxxxxxxxxxxxxxxxxxxxxxxxxxxxxxx
            x  Element    Atom        Fractional coordinates of atoms  x
            x            Number           u          v          w      x
            x----------------------------------------------------------x
            x  O            1         0.000558   0.000558   0.000623   x
            x  O            2         0.666109   0.000558   0.000623   x
            x  O            3         0.333333   0.333333   0.000459   x
            x  O            4         0.000558   0.666109   0.000623   x
            x  O            5         0.666109   0.666109   0.000623   x
            x  O            6         0.333333   0.000551   0.333526   x
            x  O            7         0.000551   0.333333   0.333526   x
            x  O            8         0.666116   0.333333   0.333526   x
            x  O            9         0.333333   0.666116   0.333526   x
            x  O           10         0.000635   0.000635   0.665883   x
            x  O           11         0.666032   0.000635   0.665883   x
            x  O           12         0.333333   0.333333   0.666061   x
            x  O           13         0.000635   0.666032   0.665883   x
            x  O           14         0.666032   0.666032   0.665883   x
            x  Mg           1         0.333333   0.000754   0.001225   x
            x  Mg           2         0.000754   0.333333   0.001225   x
            x  Mg           3         0.665913   0.333333   0.001225   x
            x  Mg           4         0.333333   0.665913   0.001225   x
            x  Ca           1         0.001569   0.001569   0.333288   x
            x  Ca           2         0.665097   0.001569   0.333288   x
            x  Ca           3         0.333333   0.333333   0.333213   x
            x  Ca           4         0.001569   0.665097   0.333288   x
            x  Ca           5         0.665097   0.665097   0.333288   x
            x  Ca           6         0.333333   0.001484   0.665521   x
            x  Ca           7         0.001484   0.333333   0.665521   x
            x  Ca           8         0.665183   0.333333   0.665521   x
            x  Ca           9         0.333333   0.665183   0.665521   x
            xxxxxxxxxxxxxxxxxxxxxxxxxxxxxxxxxxxxxxxxxxxxxxxxxxxxxxxxxxxx


------------------------------------------------------------------------ <-- SCF
SCF loop      Energy           Fermi           Energy gain       Timer   <-- SCF
                               energy          per atom          (sec)   <-- SCF
------------------------------------------------------------------------ <-- SCF
Initial  -1.92718394E+004  0.00000000E+000                      2883.27  <-- SCF
      1  -1.92877378E+004  2.65784614E+000   5.88831605E-001    2929.50  <-- SCF
      2  -1.92880952E+004  2.65324543E+000   1.32365169E-002    2999.06  <-- SCF
      3  -1.92937151E+004  1.21346076E+000   2.08142728E-001    3055.76  <-- SCF
      4  -1.92841330E+004  2.33504779E+000  -3.54892432E-001    3113.94  <-- SCF
      5  -1.92811723E+004  2.02463152E+000  -1.09653333E-001    3172.30  <-- SCF
      6  -1.92800241E+004  1.95145710E+000  -4.25258111E-002    3232.98  <-- SCF
      7  -1.92794966E+004  1.79767723E+000  -1.95394502E-002    3290.71  <-- SCF
      8  -1.92794338E+004  1.78992830E+000  -2.32601346E-003    3351.95  <-- SCF
      9  -1.92793824E+004  1.70541076E+000  -1.90382701E-003    3410.60  <-- SCF
     10  -1.92793956E+004  1.71619438E+000   4.88954607E-004    3469.08  <-- SCF
     11  -1.92793667E+004  1.71239777E+000  -1.07095842E-003    3525.32  <-- SCF
     12  -1.92793662E+004  1.70773557E+000  -1.63943681E-005    3584.13  <-- SCF
     13  -1.92793644E+004  1.70848809E+000  -6.84432824E-005    3639.68  <-- SCF
     14  -1.92793632E+004  1.70995129E+000  -4.39904754E-005    3694.98  <-- SCF
     15  -1.92793630E+004  1.70863459E+000  -6.23052573E-006    3745.11  <-- SCF
     16  -1.92793630E+004  1.70831682E+000   1.09055759E-006    3791.05  <-- SCF
     17  -1.92793630E+004  1.70856430E+000  -1.97505252E-007    3828.21  <-- SCF
     18  -1.92793630E+004  1.70864421E+000   1.53458569E-008    3865.23  <-- SCF
     19  -1.92793630E+004  1.70861904E+000   6.39453672E-010    3902.01  <-- SCF
------------------------------------------------------------------------ <-- SCF
 
Final energy, E             =  -19278.63913912     eV
Final free energy (E-TS)    =  -19279.36303946     eV
(energies not corrected for finite basis set)
 
NB est. 0K energy (E-0.5TS)      =  -19279.00108929     eV
 

 *********************************** Forces ***********************************
 *                                                                            *
 *                        Cartesian components (eV/A)                         *
 * -------------------------------------------------------------------------- *
 *                   x                    y                    z              *
 *                                                                            *
 * O         1      1.26239              1.26239              1.38076         *
 * O         2     -1.26239              1.26239              1.38076         *
 * O         3      0.00000              0.00000              1.02880         *
 * O         4      1.26239             -1.26239              1.38076         *
 * O         5     -1.26239             -1.26239              1.38076         *
 * O         6     -0.00000              1.25296              0.41079         *
 * O         7      1.25296             -0.00000              0.41079         *
 * O         8     -1.25296              0.00000              0.41079         *
 * O         9      0.00000             -1.25296              0.41079         *
 * O        10      1.40987              1.40987             -1.75038         *
 * O        11     -1.40987              1.40987             -1.75038         *
 * O        12      0.00000              0.00000             -1.35739         *
 * O        13      1.40987             -1.40987             -1.75038         *
 * O        14     -1.40987             -1.40987             -1.75038         *
 * Mg        1      0.00000              1.72734              2.70618         *
 * Mg        2      1.72734              0.00000              2.70618         *
 * Mg        3     -1.72734              0.00000              2.70618         *
 * Mg        4      0.00000             -1.72734              2.70618         *
 * Ca        1      3.40182              3.40182             -0.10210         *
 * Ca        2     -3.40182              3.40182             -0.10210         *
 * Ca        3      0.00000              0.00000             -0.28368         *
 * Ca        4      3.40182             -3.40182             -0.10210         *
 * Ca        5     -3.40182             -3.40182             -0.10210         *
 * Ca        6      0.00000              3.18824             -2.49218         *
 * Ca        7      3.18824              0.00000             -2.49218         *
 * Ca        8     -3.18824              0.00000             -2.49218         *
 * Ca        9      0.00000             -3.18824             -2.49218         *
 *                                                                            *
 ******************************************************************************

 ***************** Stress Tensor *****************
 *                                               *
 *          Cartesian components (GPa)           *
 * --------------------------------------------- *
 *             x             y             z     *
 *                                               *
 *  x     14.963833      0.000000      0.000000  *
 *  y      0.000000     14.963833      0.000000  *
 *  z      0.000000      0.000000     15.338561  *
 *                                               *
 *  Pressure:  -15.0887                          *
 *                                               *
 *************************************************

 *********** Constrained Stress Tensor ***********
 *                                               *
 *          Cartesian components (GPa)           *
 * --------------------------------------------- *
 *             x             y             z     *
 *                                               *
 *  x     15.393902      0.000000      0.000000  *
 *  y      0.000000     15.393902      0.000000  *
 *  z      0.000000      0.000000     15.393902  *
 *                                               *
 *  Pressure:  -15.3939                          *
 *                                               *
 *************************************************
  
 +------------+-------------+-------------+-----------------+ <-- min BFGS
 |    Step    |   lambda    |   F.delta   |    enthalpy     | <-- min BFGS
 +------------+-------------+-------------+-----------------+ <-- min BFGS
 |  previous  |    0.000000 |    0.095908 |   -19276.690907 | <-- min BFGS
 | trial step |    1.000000 |    0.095668 |   -19279.347837 | <-- min BFGS
 +------------+-------------+-------------+-----------------+ <-- min BFGS
  
 BFGS: finished iteration     1 with enthalpy= -1.92793478E+004 eV
  
 +-----------+-----------------+-----------------+------------+-----+ <-- BFGS
 | Parameter |      value      |    tolerance    |    units   | OK? | <-- BFGS
 +-----------+-----------------+-----------------+------------+-----+ <-- BFGS
 |  dE/ion   |   9.840483E-002 |   2.000000E-005 |         eV | No  | <-- BFGS
 |  |F|max   |   4.811979E+000 |   5.000000E-002 |       eV/A | No  | <-- BFGS
 |  |dR|max  |   1.846098E-002 |   1.000000E-003 |          A | No  | <-- BFGS
 |   Smax    |   1.508879E+001 |   1.000000E-001 |        GPa | No  | <-- BFGS
 +-----------+-----------------+-----------------+------------+-----+ <-- BFGS
  

================================================================================
 Starting BFGS iteration          2 ...
================================================================================
  
 +------------+-------------+-------------+-----------------+ <-- min BFGS
 |    Step    |   lambda    |   F.delta   |    enthalpy     | <-- min BFGS
 +------------+-------------+-------------+-----------------+ <-- min BFGS
 |  previous  |    0.000000 |    0.095441 |   -19279.347837 | <-- min BFGS
 +------------+-------------+-------------+-----------------+ <-- min BFGS
  

--------------------------------------------------------------------------------
 BFGS: starting iteration         2 with trial guess (lambda=  1.000000)
--------------------------------------------------------------------------------

                           -------------------------------
                                      Unit Cell
                           -------------------------------
        Real Lattice(A)              Reciprocal Lattice(1/A)
   8.2340312   0.0000000   0.0000000        0.7630752   0.0000000   0.0000000
   0.0000000   8.2340312   0.0000000        0.0000000   0.7630752   0.0000000
   0.0000000   0.0000000   8.2340312        0.0000000   0.0000000   0.7630752

                       Lattice parameters(A)       Cell Angles
                    a =    8.234031          alpha =   90.000000
                    b =    8.234031          beta  =   90.000000
                    c =    8.234031          gamma =   90.000000

                Current cell volume =  558.261306 A**3

                           -------------------------------
                                     Cell Contents
                           -------------------------------

            xxxxxxxxxxxxxxxxxxxxxxxxxxxxxxxxxxxxxxxxxxxxxxxxxxxxxxxxxxxx
            x  Element    Atom        Fractional coordinates of atoms  x
            x            Number           u          v          w      x
            x----------------------------------------------------------x
            x  O            1         0.001134   0.001134   0.001253   x
            x  O            2         0.665533   0.001134   0.001253   x
            x  O            3         0.333333   0.333333   0.000929   x
            x  O            4         0.001134   0.665533   0.001253   x
            x  O            5         0.665533   0.665533   0.001253   x
            x  O            6         0.333333   0.001123   0.333714   x
            x  O            7         0.001123   0.333333   0.333714   x
            x  O            8         0.665544   0.333333   0.333714   x
            x  O            9         0.333333   0.665544   0.333714   x
            x  O           10         0.001278   0.001278   0.665084   x
            x  O           11         0.665389   0.001278   0.665084   x
            x  O           12         0.333333   0.333333   0.665442   x
            x  O           13         0.001278   0.665389   0.665084   x
            x  O           14         0.665389   0.665389   0.665084   x
            x  Mg           1         0.333333   0.001542   0.002460   x
            x  Mg           2         0.001542   0.333333   0.002460   x
            x  Mg           3         0.665125   0.333333   0.002460   x
            x  Mg           4         0.333333   0.665125   0.002460   x
            x  Ca           1         0.003121   0.003121   0.333241   x
            x  Ca           2         0.663545   0.003121   0.333241   x
            x  Ca           3         0.333333   0.333333   0.333084   x
            x  Ca           4         0.003121   0.663545   0.333241   x
            x  Ca           5         0.663545   0.663545   0.333241   x
            x  Ca           6         0.333333   0.002938   0.664384   x
            x  Ca           7         0.002938   0.333333   0.664384   x
            x  Ca           8         0.663728   0.333333   0.664384   x
            x  Ca           9         0.333333   0.663728   0.664384   x
            xxxxxxxxxxxxxxxxxxxxxxxxxxxxxxxxxxxxxxxxxxxxxxxxxxxxxxxxxxxx


------------------------------------------------------------------------ <-- SCF
SCF loop      Energy           Fermi           Energy gain       Timer   <-- SCF
                               energy          per atom          (sec)   <-- SCF
------------------------------------------------------------------------ <-- SCF
Initial  -1.92745904E+004  0.00000000E+000                      4114.88  <-- SCF
      1  -1.92900927E+004  2.84384427E+000   5.74159823E-001    4160.02  <-- SCF
      2  -1.92904385E+004  2.83940956E+000   1.28058736E-002    4227.83  <-- SCF
      3  -1.92953772E+004  1.35932039E+000   1.82917189E-001    4283.56  <-- SCF
      4  -1.92863537E+004  2.52847653E+000  -3.34204135E-001    4340.15  <-- SCF
      5  -1.92837521E+004  2.21771024E+000  -9.63563786E-002    4397.11  <-- SCF
      6  -1.92825788E+004  2.13385929E+000  -4.34543864E-002    4455.45  <-- SCF
      7  -1.92820899E+004  1.99511998E+000  -1.81097710E-002    4512.01  <-- SCF
      8  -1.92820249E+004  1.94307741E+000  -2.40819538E-003    4571.70  <-- SCF
      9  -1.92820118E+004  1.89813841E+000  -4.82309397E-004    4630.19  <-- SCF
     10  -1.92819830E+004  1.89572210E+000  -1.06810458E-003    4686.83  <-- SCF
     11  -1.92819816E+004  1.89322456E+000  -5.01689324E-005    4744.48  <-- SCF
     12  -1.92819817E+004  1.89587931E+000   2.32626818E-006    4797.33  <-- SCF
     13  -1.92819805E+004  1.89591065E+000  -4.44149557E-005    4846.78  <-- SCF
     14  -1.92819805E+004  1.89557409E+000   6.49230290E-007    4895.32  <-- SCF
     15  -1.92819805E+004  1.89535848E+000   1.71482318E-007    4938.28  <-- SCF
     16  -1.92819805E+004  1.89523783E+000   1.27794948E-007    4976.46  <-- SCF
     17  -1.92819805E+004  1.89543758E+000  -2.22712743E-007    5012.73  <-- SCF
     18  -1.92819805E+004  1.89546234E+000   2.09979353E-008    5048.81  <-- SCF
     19  -1.92819805E+004  1.89544558E+000   1.04127486E-009    5084.89  <-- SCF
------------------------------------------------------------------------ <-- SCF
 
Final energy, E             =  -19281.30915655     eV
Final free energy (E-TS)    =  -19281.98052650     eV
(energies not corrected for finite basis set)
 
NB est. 0K energy (E-0.5TS)      =  -19281.64484152     eV
 

 *********************************** Forces ***********************************
 *                                                                            *
 *                        Cartesian components (eV/A)                         *
 * -------------------------------------------------------------------------- *
 *                   x                    y                    z              *
 *                                                                            *
 * O         1      1.31448              1.31448              1.40516         *
 * O         2     -1.31448              1.31448              1.40516         *
 * O         3      0.00000              0.00000              1.05581         *
 * O         4      1.31448             -1.31448              1.40516         *
 * O         5     -1.31448             -1.31448              1.40516         *
 * O         6     -0.00000              1.30642              0.40043         *
 * O         7      1.30642              0.00000              0.40043         *
 * O         8     -1.30642             -0.00000              0.40043         *
 * O         9      0.00000             -1.30642              0.40043         *
 * O        10      1.43990              1.43990             -1.79777         *
 * O        11     -1.43990              1.43990             -1.79777         *
 * O        12      0.00000              0.00000             -1.39766         *
 * O        13      1.43990             -1.43990             -1.79777         *
 * O        14     -1.43990             -1.43990             -1.79777         *
 * Mg        1      0.00000              1.81977              2.75176         *
 * Mg        2      1.81977              0.00000              2.75176         *
 * Mg        3     -1.81977             -0.00000              2.75176         *
 * Mg        4      0.00000             -1.81977              2.75176         *
 * Ca        1      3.39364              3.39364             -0.10612         *
 * Ca        2     -3.39364              3.39364             -0.10612         *
 * Ca        3      0.00000              0.00000             -0.30893         *
 * Ca        4      3.39364             -3.39364             -0.10612         *
 * Ca        5     -3.39364             -3.39364             -0.10612         *
 * Ca        6     -0.00000              3.15195             -2.49076         *
 * Ca        7      3.15195             -0.00000             -2.49076         *
 * Ca        8     -3.15195              0.00000             -2.49076         *
 * Ca        9      0.00000             -3.15195             -2.49076         *
 *                                                                            *
 ******************************************************************************

 ***************** Stress Tensor *****************
 *                                               *
 *          Cartesian components (GPa)           *
 * --------------------------------------------- *
 *             x             y             z     *
 *                                               *
 *  x     15.232256      0.000000      0.000000  *
 *  y      0.000000     15.232256      0.000000  *
 *  z      0.000000      0.000000     15.513420  *
 *                                               *
 *  Pressure:  -15.3260                          *
 *                                               *
 *************************************************

 *********** Constrained Stress Tensor ***********
 *                                               *
 *          Cartesian components (GPa)           *
 * --------------------------------------------- *
 *             x             y             z     *
 *                                               *
 *  x     15.637674      0.000000      0.000000  *
 *  y      0.000000     15.637674      0.000000  *
 *  z      0.000000      0.000000     15.637674  *
 *                                               *
 *  Pressure:  -15.6377                          *
 *                                               *
 *************************************************
  
 +------------+-------------+-------------+-----------------+ <-- min BFGS
 |    Step    |   lambda    |   F.delta   |    enthalpy     | <-- min BFGS
 +------------+-------------+-------------+-----------------+ <-- min BFGS
 |  previous  |    0.000000 |    0.095441 |   -19279.347837 | <-- min BFGS
 | trial step |    1.000000 |    0.095111 |   -19281.997683 | <-- min BFGS
 +------------+-------------+-------------+-----------------+ <-- min BFGS
  
 BFGS: finished iteration     2 with enthalpy= -1.92819977E+004 eV
  
 +-----------+-----------------+-----------------+------------+-----+ <-- BFGS
 | Parameter |      value      |    tolerance    |    units   | OK? | <-- BFGS
 +-----------+-----------------+-----------------+------------+-----+ <-- BFGS
 |  dE/ion   |   9.814244E-002 |   2.000000E-005 |         eV | No  | <-- BFGS
 |  |F|max   |   4.800504E+000 |   5.000000E-002 |       eV/A | No  | <-- BFGS
 |  |dR|max  |   1.807729E-002 |   1.000000E-003 |          A | No  | <-- BFGS
 |   Smax    |   1.532601E+001 |   1.000000E-001 |        GPa | No  | <-- BFGS
 +-----------+-----------------+-----------------+------------+-----+ <-- BFGS
  

================================================================================
 Starting BFGS iteration          3 ...
================================================================================
  
 +------------+-------------+-------------+-----------------+ <-- min BFGS
 |    Step    |   lambda    |   F.delta   |    enthalpy     | <-- min BFGS
 +------------+-------------+-------------+-----------------+ <-- min BFGS
 |  previous  |    0.000000 |    0.094795 |   -19281.997683 | <-- min BFGS
 +------------+-------------+-------------+-----------------+ <-- min BFGS
  

--------------------------------------------------------------------------------
 BFGS: starting iteration         3 with trial guess (lambda=  1.000000)
--------------------------------------------------------------------------------

                           -------------------------------
                                      Unit Cell
                           -------------------------------
        Real Lattice(A)              Reciprocal Lattice(1/A)
   8.1515636   0.0000000   0.0000000        0.7707951   0.0000000   0.0000000
   0.0000000   8.1515636   0.0000000        0.0000000   0.7707951   0.0000000
   0.0000000   0.0000000   8.1515636        0.0000000   0.0000000   0.7707951

                       Lattice parameters(A)       Cell Angles
                    a =    8.151564          alpha =   90.000000
                    b =    8.151564          beta  =   90.000000
                    c =    8.151564          gamma =   90.000000

                Current cell volume =  541.655008 A**3

                           -------------------------------
                                     Cell Contents
                           -------------------------------

            xxxxxxxxxxxxxxxxxxxxxxxxxxxxxxxxxxxxxxxxxxxxxxxxxxxxxxxxxxxx
            x  Element    Atom        Fractional coordinates of atoms  x
            x            Number           u          v          w      x
            x----------------------------------------------------------x
            x  O            1         0.001728   0.001728   0.001888   x
            x  O            2         0.664939   0.001728   0.001888   x
            x  O            3         0.333333   0.333333   0.001406   x
            x  O            4         0.001728   0.664939   0.001888   x
            x  O            5         0.664939   0.664939   0.001888   x
            x  O            6         0.333333   0.001713   0.333894   x
            x  O            7         0.001713   0.333333   0.333894   x
            x  O            8         0.664954   0.333333   0.333894   x
            x  O            9         0.333333   0.664954   0.333894   x
            x  O           10         0.001928   0.001928   0.664272   x
            x  O           11         0.664738   0.001928   0.664272   x
            x  O           12         0.333333   0.333333   0.664811   x
            x  O           13         0.001928   0.664738   0.664272   x
            x  O           14         0.664738   0.664738   0.664272   x
            x  Mg           1         0.333333   0.002364   0.003703   x
            x  Mg           2         0.002364   0.333333   0.003703   x
            x  Mg           3         0.664303   0.333333   0.003703   x
            x  Mg           4         0.333333   0.664303   0.003703   x
            x  Ca           1         0.004654   0.004654   0.333193   x
            x  Ca           2         0.662012   0.004654   0.333193   x
            x  Ca           3         0.333333   0.333333   0.332944   x
            x  Ca           4         0.004654   0.662012   0.333193   x
            x  Ca           5         0.662012   0.662012   0.333193   x
            x  Ca           6         0.333333   0.004362   0.663259   x
            x  Ca           7         0.004362   0.333333   0.663259   x
            x  Ca           8         0.662305   0.333333   0.663259   x
            x  Ca           9         0.333333   0.662305   0.663259   x
            xxxxxxxxxxxxxxxxxxxxxxxxxxxxxxxxxxxxxxxxxxxxxxxxxxxxxxxxxxxx


------------------------------------------------------------------------ <-- SCF
SCF loop      Energy           Fermi           Energy gain       Timer   <-- SCF
                               energy          per atom          (sec)   <-- SCF
------------------------------------------------------------------------ <-- SCF
Initial  -1.92773686E+004  0.00000000E+000                      5296.13  <-- SCF
      1  -1.92924668E+004  3.03846382E+000   5.59191777E-001    5340.39  <-- SCF
      2  -1.92928041E+004  3.03394846E+000   1.24917741E-002    5407.27  <-- SCF
      3  -1.92972640E+004  1.49211009E+000   1.65180626E-001    5461.66  <-- SCF
      4  -1.92886242E+004  2.72202968E+000  -3.19991609E-001    5517.27  <-- SCF
      5  -1.92864610E+004  2.42475455E+000  -8.01160811E-002    5573.60  <-- SCF
      6  -1.92851584E+004  2.31975228E+000  -4.82451791E-002    5630.91  <-- SCF
      7  -1.92847240E+004  2.20002275E+000  -1.60892261E-002    5687.19  <-- SCF
      8  -1.92846380E+004  2.11908435E+000  -3.18733524E-003    5745.26  <-- SCF
      9  -1.92846788E+004  2.10676198E+000   1.51342353E-003    5800.89  <-- SCF
     10  -1.92846224E+004  2.08922624E+000  -2.08813261E-003    5855.27  <-- SCF
     11  -1.92846260E+004  2.08894851E+000   1.30648440E-004    5912.43  <-- SCF
     12  -1.92846184E+004  2.08940546E+000  -2.79884296E-004    5966.09  <-- SCF
     13  -1.92846188E+004  2.09026918E+000   1.24495445E-005    6016.25  <-- SCF
     14  -1.92846187E+004  2.09029394E+000  -2.21570800E-006    6064.79  <-- SCF
     15  -1.92846187E+004  2.08963473E+000  -5.23036783E-007    6113.10  <-- SCF
     16  -1.92846187E+004  2.08989547E+000  -4.22781882E-007    6150.38  <-- SCF
     17  -1.92846187E+004  2.08991314E+000   3.01931898E-008    6185.97  <-- SCF
     18  -1.92846187E+004  2.08990665E+000  -1.14324830E-009    6221.55  <-- SCF
------------------------------------------------------------------------ <-- SCF
 
Final energy, E             =  -19283.99948675     eV
Final free energy (E-TS)    =  -19284.61866723     eV
(energies not corrected for finite basis set)
 
NB est. 0K energy (E-0.5TS)      =  -19284.30907699     eV
 

 *********************************** Forces ***********************************
 *                                                                            *
 *                        Cartesian components (eV/A)                         *
 * -------------------------------------------------------------------------- *
 *                   x                    y                    z              *
 *                                                                            *
 * O         1      1.36837              1.36837              1.43080         *
 * O         2     -1.36837              1.36837              1.43080         *
 * O         3      0.00000              0.00000              1.07923         *
 * O         4      1.36837             -1.36837              1.43080         *
 * O         5     -1.36837             -1.36837              1.43080         *
 * O         6      0.00000              1.35696              0.38657         *
 * O         7      1.35696              0.00000              0.38657         *
 * O         8     -1.35696              0.00000              0.38657         *
 * O         9      0.00000             -1.35696              0.38657         *
 * O        10      1.47285              1.47285             -1.84712         *
 * O        11     -1.47285              1.47285             -1.84712         *
 * O        12      0.00000              0.00000             -1.43555         *
 * O        13      1.47285             -1.47285             -1.84712         *
 * O        14     -1.47285             -1.47285             -1.84712         *
 * Mg        1      0.00000              1.91105              2.79261         *
 * Mg        2      1.91105              0.00000              2.79261         *
 * Mg        3     -1.91105              0.00000              2.79261         *
 * Mg        4      0.00000             -1.91105              2.79261         *
 * Ca        1      3.37875              3.37875             -0.11035         *
 * Ca        2     -3.37875              3.37875             -0.11035         *
 * Ca        3      0.00000              0.00000             -0.33586         *
 * Ca        4      3.37875             -3.37875             -0.11035         *
 * Ca        5     -3.37875             -3.37875             -0.11035         *
 * Ca        6      0.00000              3.10902             -2.47947         *
 * Ca        7      3.10902              0.00000             -2.47947         *
 * Ca        8     -3.10902             -0.00000             -2.47947         *
 * Ca        9     -0.00000             -3.10902             -2.47947         *
 *                                                                            *
 ******************************************************************************

 ***************** Stress Tensor *****************
 *                                               *
 *          Cartesian components (GPa)           *
 * --------------------------------------------- *
 *             x             y             z     *
 *                                               *
 *  x     15.360945      0.000000      0.000000  *
 *  y      0.000000     15.360945      0.000000  *
 *  z      0.000000      0.000000     15.548764  *
 *                                               *
 *  Pressure:  -15.4236                          *
 *                                               *
 *************************************************

 *********** Constrained Stress Tensor ***********
 *                                               *
 *          Cartesian components (GPa)           *
 * --------------------------------------------- *
 *             x             y             z     *
 *                                               *
 *  x     15.736034      0.000000      0.000000  *
 *  y      0.000000     15.736034      0.000000  *
 *  z      0.000000      0.000000     15.736034  *
 *                                               *
 *  Pressure:  -15.7360                          *
 *                                               *
 *************************************************
  
 +------------+-------------+-------------+-----------------+ <-- min BFGS
 |    Step    |   lambda    |   F.delta   |    enthalpy     | <-- min BFGS
 +------------+-------------+-------------+-----------------+ <-- min BFGS
 |  previous  |    0.000000 |    0.094795 |   -19281.997683 | <-- min BFGS
 | trial step |    1.000000 |    0.093876 |   -19284.613285 | <-- min BFGS
 +------------+-------------+-------------+-----------------+ <-- min BFGS
  
 BFGS: finished iteration     3 with enthalpy= -1.92846133E+004 eV
  
 +-----------+-----------------+-----------------+------------+-----+ <-- BFGS
 | Parameter |      value      |    tolerance    |    units   | OK? | <-- BFGS
 +-----------+-----------------+-----------------+------------+-----+ <-- BFGS
 |  dE/ion   |   9.687413E-002 |   2.000000E-005 |         eV | No  | <-- BFGS
 |  |F|max   |   4.779549E+000 |   5.000000E-002 |       eV/A | No  | <-- BFGS
 |  |dR|max  |   1.767574E-002 |   1.000000E-003 |          A | No  | <-- BFGS
 |   Smax    |   1.542356E+001 |   1.000000E-001 |        GPa | No  | <-- BFGS
 +-----------+-----------------+-----------------+------------+-----+ <-- BFGS
  

================================================================================
 Starting BFGS iteration          4 ...
================================================================================
  
 +------------+-------------+-------------+-----------------+ <-- min BFGS
 |    Step    |   lambda    |   F.delta   |    enthalpy     | <-- min BFGS
 +------------+-------------+-------------+-----------------+ <-- min BFGS
 |  previous  |    0.000000 |    0.092982 |   -19284.613285 | <-- min BFGS
 +------------+-------------+-------------+-----------------+ <-- min BFGS
  

--------------------------------------------------------------------------------
 BFGS: starting iteration         4 with trial guess (lambda=  1.000000)
--------------------------------------------------------------------------------

                           -------------------------------
                                      Unit Cell
                           -------------------------------
        Real Lattice(A)              Reciprocal Lattice(1/A)
   8.0702251   0.0000000   0.0000000        0.7785638   0.0000000   0.0000000
   0.0000000   8.0702251   0.0000000        0.0000000   0.7785638   0.0000000
   0.0000000   0.0000000   8.0702251        0.0000000   0.0000000   0.7785638

                       Lattice parameters(A)       Cell Angles
                    a =    8.070225          alpha =   90.000000
                    b =    8.070225          beta  =   90.000000
                    c =    8.070225          gamma =   90.000000

                Current cell volume =  525.601927 A**3

                           -------------------------------
                                     Cell Contents
                           -------------------------------

            xxxxxxxxxxxxxxxxxxxxxxxxxxxxxxxxxxxxxxxxxxxxxxxxxxxxxxxxxxxx
            x  Element    Atom        Fractional coordinates of atoms  x
            x            Number           u          v          w      x
            x----------------------------------------------------------x
            x  O            1         0.002340   0.002340   0.002528   x
            x  O            2         0.664327   0.002340   0.002528   x
            x  O            3         0.333333   0.333333   0.001888   x
            x  O            4         0.002340   0.664327   0.002528   x
            x  O            5         0.664327   0.664327   0.002528   x
            x  O            6         0.333333   0.002320   0.334067   x
            x  O            7         0.002320   0.333333   0.334067   x
            x  O            8         0.664347   0.333333   0.334067   x
            x  O            9         0.333333   0.664347   0.334067   x
            x  O           10         0.002587   0.002587   0.663446   x
            x  O           11         0.664080   0.002587   0.663446   x
            x  O           12         0.333333   0.333333   0.664169   x
            x  O           13         0.002587   0.664080   0.663446   x
            x  O           14         0.664080   0.664080   0.663446   x
            x  Mg           1         0.333333   0.003218   0.004951   x
            x  Mg           2         0.003218   0.333333   0.004951   x
            x  Mg           3         0.663448   0.333333   0.004951   x
            x  Mg           4         0.333333   0.663448   0.004951   x
            x  Ca           1         0.006165   0.006165   0.333144   x
            x  Ca           2         0.660502   0.006165   0.333144   x
            x  Ca           3         0.333333   0.333333   0.332794   x
            x  Ca           4         0.006165   0.660502   0.333144   x
            x  Ca           5         0.660502   0.660502   0.333144   x
            x  Ca           6         0.333333   0.005752   0.662150   x
            x  Ca           7         0.005752   0.333333   0.662150   x
            x  Ca           8         0.660914   0.333333   0.662150   x
            x  Ca           9         0.333333   0.660914   0.662150   x
            xxxxxxxxxxxxxxxxxxxxxxxxxxxxxxxxxxxxxxxxxxxxxxxxxxxxxxxxxxxx


------------------------------------------------------------------------ <-- SCF
SCF loop      Energy           Fermi           Energy gain       Timer   <-- SCF
                               energy          per atom          (sec)   <-- SCF
------------------------------------------------------------------------ <-- SCF
Initial  -1.92801292E+004  0.00000000E+000                      6431.71  <-- SCF
      1  -1.92947057E+004  3.23178701E+000   5.39871159E-001    6476.58  <-- SCF
      2  -1.92950250E+004  3.22733583E+000   1.18245130E-002    6543.17  <-- SCF
      3  -1.92989443E+004  1.63064365E+000   1.45161709E-001    6596.51  <-- SCF
      4  -1.92908069E+004  2.91512271E+000  -3.01385212E-001    6650.65  <-- SCF
      5  -1.92888977E+004  2.62095288E+000  -7.07114949E-002    6706.18  <-- SCF
      6  -1.92877080E+004  2.52335377E+000  -4.40636064E-002    6762.20  <-- SCF
      7  -1.92872861E+004  2.41394486E+000  -1.56270733E-002    6817.56  <-- SCF
      8  -1.92872004E+004  2.32851517E+000  -3.17341824E-003    6874.14  <-- SCF
      9  -1.92872638E+004  2.30836601E+000   2.34693945E-003    6928.51  <-- SCF
     10  -1.92871666E+004  2.28920767E+000  -3.59711695E-003    6980.86  <-- SCF
     11  -1.92871833E+004  2.28726223E+000   6.16923494E-004    7036.59  <-- SCF
     12  -1.92871747E+004  2.29032133E+000  -3.17360724E-004    7089.87  <-- SCF
     13  -1.92871754E+004  2.29074554E+000   2.52937443E-005    7141.24  <-- SCF
     14  -1.92871751E+004  2.29098303E+000  -1.12233008E-005    7189.89  <-- SCF
     15  -1.92871751E+004  2.29076179E+000  -2.90278281E-008    7236.90  <-- SCF
     16  -1.92871751E+004  2.29073130E+000  -6.51834852E-008    7272.54  <-- SCF
------------------------------------------------------------------------ <-- SCF
 
Final energy, E             =  -19286.60652018     eV
Final free energy (E-TS)    =  -19287.17510735     eV
(energies not corrected for finite basis set)
 
NB est. 0K energy (E-0.5TS)      =  -19286.89081376     eV
 

 *********************************** Forces ***********************************
 *                                                                            *
 *                        Cartesian components (eV/A)                         *
 * -------------------------------------------------------------------------- *
 *                   x                    y                    z              *
 *                                                                            *
 * O         1      1.42577              1.42577              1.45159         *
 * O         2     -1.42577              1.42577              1.45159         *
 * O         3      0.00000              0.00000              1.09006         *
 * O         4      1.42577             -1.42577              1.45159         *
 * O         5     -1.42577             -1.42577              1.45159         *
 * O         6     -0.00000              1.39856              0.36973         *
 * O         7      1.39856              0.00000              0.36973         *
 * O         8     -1.39856              0.00000              0.36973         *
 * O         9     -0.00000             -1.39856              0.36973         *
 * O        10      1.50409              1.50409             -1.89275         *
 * O        11     -1.50409              1.50409             -1.89275         *
 * O        12      0.00000              0.00000             -1.46224         *
 * O        13      1.50409             -1.50409             -1.89275         *
 * O        14     -1.50409             -1.50409             -1.89275         *
 * Mg        1      0.00000              1.99950              2.82753         *
 * Mg        2      1.99950             -0.00000              2.82753         *
 * Mg        3     -1.99950             -0.00000              2.82753         *
 * Mg        4     -0.00000             -1.99950              2.82753         *
 * Ca        1      3.35524              3.35524             -0.11489         *
 * Ca        2     -3.35524              3.35524             -0.11489         *
 * Ca        3      0.00000              0.00000             -0.36502         *
 * Ca        4      3.35524             -3.35524             -0.11489         *
 * Ca        5     -3.35524             -3.35524             -0.11489         *
 * Ca        6     -0.00000              3.05781             -2.45690         *
 * Ca        7      3.05781              0.00000             -2.45690         *
 * Ca        8     -3.05781              0.00000             -2.45690         *
 * Ca        9      0.00000             -3.05781             -2.45690         *
 *                                                                            *
 ******************************************************************************

 ***************** Stress Tensor *****************
 *                                               *
 *          Cartesian components (GPa)           *
 * --------------------------------------------- *
 *             x             y             z     *
 *                                               *
 *  x     15.445716      0.000000      0.000000  *
 *  y      0.000000     15.445716      0.000000  *
 *  z      0.000000      0.000000     15.551860  *
 *                                               *
 *  Pressure:  -15.4811                          *
[...]
 *                        Cartesian components (eV/A)                         *
 * -------------------------------------------------------------------------- *
 *                   x                    y                    z              *
 *                                                                            *
 * O         1      2.10936              2.10936              0.92324         *
 * O         2     -2.10936              2.10936              0.92324         *
 * O         3      0.00000              0.00000              0.69671         *
 * O         4      2.10936             -2.10936              0.92324         *
 * O         5     -2.10936             -2.10936              0.92324         *
 * O         6      0.00000              0.89388             -0.39921         *
 * O         7      0.89388              0.00000             -0.39921         *
 * O         8     -0.89388              0.00000             -0.39921         *
 * O         9      0.00000             -0.89388             -0.39921         *
 * O        10      1.35827              1.35827             -1.61584         *
 * O        11     -1.35827              1.35827             -1.61584         *
 * O        12      0.00000              0.00000             -1.15547         *
 * O        13      1.35827             -1.35827             -1.61584         *
 * O        14     -1.35827             -1.35827             -1.61584         *
 * Mg        1      0.00000              1.95476              1.82883         *
 * Mg        2      1.95476              0.00000              1.82883         *
 * Mg        3     -1.95476              0.00000              1.82883         *
 * Mg        4      0.00000             -1.95476              1.82883         *
 * Ca        1      0.69115              0.69115             -0.17613         *
 * Ca        2     -0.69115              0.69115             -0.17613         *
 * Ca        3      0.00000              0.00000             -0.20635         *
 * Ca        4      0.69115             -0.69115             -0.17613         *
 * Ca        5     -0.69115             -0.69115             -0.17613         *
 * Ca        6      0.00000              0.69155             -0.39462         *
 * Ca        7      0.69155              0.00000             -0.39462         *
 * Ca        8     -0.69155              0.00000             -0.39462         *
 * Ca        9      0.00000             -0.69155             -0.39462         *
 *                                                                            *
 ******************************************************************************

 ***************** Stress Tensor *****************
 *                                               *
 *          Cartesian components (GPa)           *
 * --------------------------------------------- *
 *             x             y             z     *
 *                                               *
 *  x      0.351786      0.000000      0.000000  *
 *  y      0.000000      0.351786      0.000000  *
 *  z      0.000000      0.000000     -1.874891  *
 *                                               *
 *  Pressure:    0.3904                          *
 *                                               *
 *************************************************

 *********** Constrained Stress Tensor ***********
 *                                               *
 *          Cartesian components (GPa)           *
 * --------------------------------------------- *
 *             x             y             z     *
 *                                               *
 *  x     -0.388667      0.000000      0.000000  *
 *  y      0.000000     -0.388667      0.000000  *
 *  z      0.000000      0.000000     -0.388667  *
 *                                               *
 *  Pressure:    0.3887                          *
 *                                               *
 *************************************************
  
 +------------+-------------+-------------+-----------------+ <-- min BFGS
 |    Step    |   lambda    |   F.delta   |    enthalpy     | <-- min BFGS
 +------------+-------------+-------------+-----------------+ <-- min BFGS
 |  previous  |    0.000000 |    0.011311 |   -19314.163501 | <-- min BFGS
 | trial step |    1.000000 |    0.011128 |   -19314.468754 | <-- min BFGS
 +------------+-------------+-------------+-----------------+ <-- min BFGS
  
 BFGS: finished iteration    30 with enthalpy= -1.93144688E+004 eV
  
 +-----------+-----------------+-----------------+------------+-----+ <-- BFGS
 | Parameter |      value      |    tolerance    |    units   | OK? | <-- BFGS
 +-----------+-----------------+-----------------+------------+-----+ <-- BFGS
 |  dE/ion   |   1.130569E-002 |   2.000000E-005 |         eV | No  | <-- BFGS
 |  |F|max   |   3.122687E+000 |   5.000000E-002 |       eV/A | No  | <-- BFGS
 |  |dR|max  |   8.905342E-003 |   1.000000E-003 |          A | No  | <-- BFGS
 |   Smax    |   3.888396E-001 |   1.000000E-001 |        GPa | No  | <-- BFGS
 +-----------+-----------------+-----------------+------------+-----+ <-- BFGS
  
 BFGS : WARNING - Geometry optimization failed to converge after         30 steps

================================================================================
 BFGS : Final Configuration:
================================================================================

                           -------------------------------
                                      Unit Cell
                           -------------------------------
        Real Lattice(A)              Reciprocal Lattice(1/A)
   7.1841006   0.0000000   0.0000000        0.8745960   0.0000000   0.0000000
   0.0000000   7.1841006   0.0000000        0.0000000   0.8745960   0.0000000
   0.0000000   0.0000000   7.1841006        0.0000000   0.0000000   0.8745960

                       Lattice parameters(A)       Cell Angles
                    a =    7.184101          alpha =   90.000000
                    b =    7.184101          beta  =   90.000000
                    c =    7.184101          gamma =   90.000000

                Current cell volume =  370.780784 A**3

                           -------------------------------
                                     Cell Contents
                           -------------------------------

            xxxxxxxxxxxxxxxxxxxxxxxxxxxxxxxxxxxxxxxxxxxxxxxxxxxxxxxxxxxx
            x  Element    Atom        Fractional coordinates of atoms  x
            x            Number           u          v          w      x
            x----------------------------------------------------------x
            x  O            1         0.023261   0.023261   0.016245   x
            x  O            2         0.643405   0.023261   0.016245   x
            x  O            3         0.333333   0.333333   0.012844   x
            x  O            4         0.023261   0.643405   0.016245   x
            x  O            5         0.643405   0.643405   0.016245   x
            x  O            6         0.333333   0.016185   0.333316   x
            x  O            7         0.016185   0.333333   0.333316   x
            x  O            8         0.650482   0.333333   0.333316   x
            x  O            9         0.333333   0.650482   0.333316   x
            x  O           10         0.019339   0.019339   0.642939   x
            x  O           11         0.647328   0.019339   0.642939   x
            x  O           12         0.333333   0.333333   0.648145   x
            x  O           13         0.019339   0.647328   0.642939   x
            x  O           14         0.647328   0.647328   0.642939   x
            x  Mg           1         0.333333   0.027178   0.031342   x
            x  Mg           2         0.027178   0.333333   0.031342   x
            x  Mg           3         0.639489   0.333333   0.031342   x
            x  Mg           4         0.333333   0.639489   0.031342   x
            x  Ca           1         0.027237   0.027237   0.331291   x
            x  Ca           2         0.639430   0.027237   0.331291   x
            x  Ca           3         0.333333   0.333333   0.327790   x
            x  Ca           4         0.027237   0.639430   0.331291   x
            x  Ca           5         0.639430   0.639430   0.331291   x
            x  Ca           6         0.333333   0.024844   0.647673   x
            x  Ca           7         0.024844   0.333333   0.647673   x
            x  Ca           8         0.641823   0.333333   0.647673   x
            x  Ca           9         0.333333   0.641823   0.647673   x
            xxxxxxxxxxxxxxxxxxxxxxxxxxxxxxxxxxxxxxxxxxxxxxxxxxxxxxxxxxxx


 BFGS : Final Enthalpy     = -1.93144688E+004 eV
 BFGS : Final <frequency>  unchanged from initial value
 BFGS : Final bulk modulus unchanged from initial value
  
  **********************************************************
  *** There were at least     1 warnings during this run ***
  *** => please check the whole of this file carefully!  ***
  **********************************************************

 ***************************** Symmetrised Forces *****************************
 *                                                                            *
 *                        Cartesian components (eV/A)                         *
 * -------------------------------------------------------------------------- *
 *                   x                    y                    z              *
 *                                                                            *
 * O         1      2.10936              2.10936              0.92324         *
 * O         2     -2.10936              2.10936              0.92324         *
 * O         3      0.00000              0.00000              0.69671         *
 * O         4      2.10936             -2.10936              0.92324         *
 * O         5     -2.10936             -2.10936              0.92324         *
 * O         6      0.00000              0.89388             -0.39921         *
 * O         7      0.89388              0.00000             -0.39921         *
 * O         8     -0.89388              0.00000             -0.39921         *
 * O         9      0.00000             -0.89388             -0.39921         *
 * O        10      1.35827              1.35827             -1.61584         *
 * O        11     -1.35827              1.35827             -1.61584         *
 * O        12      0.00000              0.00000             -1.15547         *
 * O        13      1.35827             -1.35827             -1.61584         *
 * O        14     -1.35827             -1.35827             -1.61584         *
 * Mg        1      0.00000              1.95476              1.82883         *
 * Mg        2      1.95476              0.00000              1.82883         *
 * Mg        3     -1.95476              0.00000              1.82883         *
 * Mg        4      0.00000             -1.95476              1.82883         *
 * Ca        1      0.69115              0.69115             -0.17613         *
 * Ca        2     -0.69115              0.69115             -0.17613         *
 * Ca        3      0.00000              0.00000             -0.20635         *
 * Ca        4      0.69115             -0.69115             -0.17613         *
 * Ca        5     -0.69115             -0.69115             -0.17613         *
 * Ca        6      0.00000              0.69155             -0.39462         *
 * Ca        7      0.69155              0.00000             -0.39462         *
 * Ca        8     -0.69155              0.00000             -0.39462         *
 * Ca        9      0.00000             -0.69155             -0.39462         *
 *                                                                            *
 ******************************************************************************

 *********** Symmetrised Stress Tensor ***********
 *                                               *
 *          Cartesian components (GPa)           *
 * --------------------------------------------- *
 *             x             y             z     *
 *                                               *
 *  x     -0.388840      0.000000      0.000000  *
 *  y      0.000000     -0.388840      0.000000  *
 *  z      0.000000      0.000000     -0.388840  *
 *                                               *
 *  Pressure:    0.3888                          *
 *                                               *
 *************************************************

 Pseudo atomic calculation performed for O 2s2 2p4

 Converged in 30 iterations to a total energy of -432.5600 eV


 Pseudo atomic calculation performed for Mg 2p6 3s2

 Converged in 23 iterations to a total energy of -1024.6674 eV


 Pseudo atomic calculation performed for Ca 3s2 3p6 4s2

 Converged in 24 iterations to a total energy of -1000.4575 eV

Charge spilling parameter for spin component 1 = 0.31%

     Atomic Populations (Mulliken)
     -----------------------------
Species   Ion     s      p      d      f     Total  Charge (e)
==============================================================
  O        1     1.93   4.80   0.00   0.00   6.72    -0.72
  O        2     1.93   4.80   0.00   0.00   6.72    -0.72
  O        3     1.87   5.06   0.00   0.00   6.93    -0.93
  O        4     1.93   4.80   0.00   0.00   6.72    -0.72
  O        5     1.93   4.80   0.00   0.00   6.72    -0.72
  O        6     1.86   5.01   0.00   0.00   6.87    -0.87
  O        7     1.86   5.01   0.00   0.00   6.87    -0.87
  O        8     1.86   5.01   0.00   0.00   6.87    -0.87
  O        9     1.86   5.01   0.00   0.00   6.87    -0.87
  O       10     1.92   4.79   0.00   0.00   6.71    -0.71
  O       11     1.92   4.79   0.00   0.00   6.71    -0.71
  O       12     1.86   4.98   0.00   0.00   6.84    -0.84
  O       13     1.92   4.79   0.00   0.00   6.71    -0.71
  O       14     1.92   4.79   0.00   0.00   6.71    -0.71
  Mg       1     0.56   6.79   0.00   0.00   7.35     0.65
  Mg       2     0.56   6.79   0.00   0.00   7.35     0.65
  Mg       3     0.56   6.79   0.00   0.00   7.35     0.65
  Mg       4     0.56   6.79   0.00   0.00   7.35     0.65
  Ca       1     2.23   5.97   0.90   0.00   9.10     0.90
  Ca       2     2.23   5.97   0.90   0.00   9.10     0.90
  Ca       3     2.23   5.99   0.85   0.00   9.06     0.94
  Ca       4     2.23   5.97   0.90   0.00   9.10     0.90
  Ca       5     2.23   5.97   0.90   0.00   9.10     0.90
  Ca       6     2.18   5.97   0.88   0.00   9.04     0.96
  Ca       7     2.18   5.97   0.88   0.00   9.04     0.96
  Ca       8     2.18   5.97   0.88   0.00   9.04     0.96
  Ca       9     2.18   5.97   0.88   0.00   9.04     0.96
==============================================================

            Bond              Population      Length (A)
============================================================
         O 9  -- Mg 4              0.28        2.17085
         O 8  -- Mg 3              0.28        2.17085
         O 7  -- Mg 2              0.28        2.17085
         O 6  -- Mg 1              0.28        2.17085
         O 9  -- Ca 4              0.20        2.20051
         O 8  -- Ca 2              0.20        2.20051
         O 7  -- Ca 1              0.20        2.20051
         O 6  -- Ca 1              0.20        2.20051
         O 9  -- Ca 5              0.20        2.20051
         O 8  -- Ca 5              0.20        2.20051
         O 7  -- Ca 4              0.20        2.20051
         O 6  -- Ca 2              0.20        2.20051
         O 3  -- Mg 2              0.27        2.20347
         O 3  -- Mg 1              0.27        2.20347
         O 3  -- Mg 4              0.27        2.20347
         O 3  -- Mg 3              0.27        2.20347
         O 12 -- Ca 7              0.21        2.21622
         O 12 -- Ca 6              0.21        2.21622
         O 12 -- Ca 9              0.21        2.21622
         O 12 -- Ca 8              0.21        2.21622
         O 4  -- Mg 4              0.40        2.23040
         O 2  -- Mg 3              0.40        2.23040
         O 1  -- Mg 2              0.40        2.23040
         O 1  -- Mg 1              0.40        2.23040
         O 5  -- Mg 4              0.40        2.23040
         O 5  -- Mg 3              0.40        2.23040
         O 4  -- Mg 2              0.40        2.23040
         O 2  -- Mg 1              0.40        2.23040
         O 14 -- Ca 5              0.23        2.24035
         O 13 -- Ca 4              0.23        2.24035
         O 11 -- Ca 2              0.23        2.24035
         O 10 -- Ca 1              0.23        2.24035
         O 13 -- Ca 9              0.22        2.25637
         O 11 -- Ca 8              0.22        2.25637
         O 10 -- Ca 7              0.22        2.25637
         O 10 -- Ca 6              0.22        2.25637
         O 14 -- Ca 9              0.22        2.25637
         O 14 -- Ca 8              0.22        2.25637
         O 13 -- Ca 7              0.22        2.25637
         O 11 -- Ca 6              0.22        2.25637
         O 9  -- Ca 9              0.23        2.25923
         O 8  -- Ca 8              0.23        2.25923
         O 7  -- Ca 7              0.23        2.25923
         O 6  -- Ca 6              0.23        2.25923
         O 3  -- Ca 3              0.10        2.26260
         O 5  -- Ca 5              0.19        2.26368
         O 4  -- Ca 4              0.19        2.26368
         O 2  -- Ca 2              0.19        2.26368
         O 1  -- Ca 1              0.19        2.26368
         O 7  -- Ca 3              0.11        2.27877
         O 6  -- Ca 3              0.11        2.27877
         O 9  -- Ca 3              0.11        2.27877
         O 8  -- Ca 3              0.11        2.27877
         O 12 -- Ca 3              0.12        2.30147
         O 3  -- O 12             -0.07        2.62003
         O 7  -- O 8              -0.07        2.62724
         O 6  -- O 9              -0.07        2.62724
         O 13 -- O 14             -0.03        2.67257
         O 11 -- O 14             -0.03        2.67257
         O 10 -- O 13             -0.03        2.67257
         O 10 -- O 11             -0.03        2.67257
         O 5  -- O 14             -0.03        2.68216
         O 4  -- O 13             -0.03        2.68216
         O 2  -- O 11             -0.03        2.68216
         O 1  -- O 10             -0.03        2.68216
         O 4  -- O 5              -0.04        2.72893
         O 2  -- O 5              -0.04        2.72893
         O 1  -- O 4              -0.04        2.72893
         O 1  -- O 2              -0.04        2.72893
         Ca 7 -- Ca 8             -0.15        2.75166
         Ca 6 -- Ca 9             -0.15        2.75166
         Mg 4 -- Ca 9             -0.30        2.75636
         Mg 3 -- Ca 8             -0.30        2.75636
         Mg 2 -- Ca 7             -0.30        2.75636
         Mg 1 -- Ca 6             -0.30        2.75636
         Mg 2 -- Mg 3             -0.48        2.78519
         Mg 1 -- Mg 4             -0.48        2.78519
         Ca 4 -- Ca 5             -0.17        2.78604
         Ca 2 -- Ca 5             -0.17        2.78604
         Ca 1 -- Ca 4             -0.17        2.78604
         Ca 1 -- Ca 2             -0.17        2.78604
============================================================


Writing model to test_5.check

Writing analysis data to test_5.castep_bin
 
 A BibTeX formatted list of references used in this run has been written to 
 test_5.bib
 
Initialisation time =     26.34 s
Calculation time    =  24548.36 s
Finalisation time   =      1.77 s
Total time          =  24576.48 s
Peak Memory Use     = 1306860 kB
  
Overall parallel efficiency rating: Ideal (100%)                                
  
Data was distributed by:-
k-point (2-way); efficiency rating: Ideal (100%)                                
