 +-------------------------------------------------+
 |                                                 |
 |      CCC   AA    SSS  TTTTT  EEEEE  PPPP        |
 |     C     A  A  S       T    E      P   P       |
 |     C     AAAA   SS     T    EEE    PPPP        |
 |     C     A  A     S    T    E      P           |
 |      CCC  A  A  SSS     T    EEEEE  P           |
 |                                                 |
 +-------------------------------------------------+
 |                                                 |
 | Welcome to Academic Release CASTEP version 6.1  |
 | Ab Initio Total Energy Program                  |
 |                                                 |
 | Authors:                                        |
 | M. Segall, M. Probert, C. Pickard, P. Hasnip,   |
 | S. Clark, K. Refson, J. R. Yates, M. Payne      |
 |                                                 |
 | Contributors:                                   |
 | P. Lindan, P. Haynes, J. White, V. Milman,      |
 | N. Govind, M. Gibson, P. Tulip, V. Cocula,      |
 | B. Montanari, D. Quigley, M. Glover,            |
 | L. Bernasconi, A. Perlov, M. Plummer,           |
 | E. McNellis, J. Meyer, J. Gale, D. Jochym       |
 | J. Aarons, B. Walker, R. Gillen                 |
 |                                                 |
 | Copyright (c) 2000 - 2012                       |
 |                                                 |
 |     Distributed under the terms of an           |
 |     Agreement between the United Kingdom        |
 |     Car-Parrinello (UKCP) Consortium,           |
 |     Daresbury Laboratory and Accelrys, Inc.     |
 |                                                 |
 | Please cite                                     |
 |                                                 |
 |     "First principles methods using CASTEP"     |
 |                                                 |
 |         Zeitschrift fuer Kristallographie       |
 |           220(5-6) pp. 567-570 (2005)           |
 |                                                 |
 | S. J. Clark, M. D. Segall, C. J. Pickard,       |
 | P. J. Hasnip, M. J. Probert, K. Refson,         |
 | M. C. Payne                                     |
 |                                                 |
 |       in all publications arising from          |
 |              your use of CASTEP                 |
 |                                                 |
 +-------------------------------------------------+


 Compiled for linux_x86_64_gfortran on Wed Nov 21 15:08:09 2012
 from source code version eaed21d6e002+  2012-10-31
 using fast optimisation, fftw3 FFTs and openblas LAPACK and BLAS.


 Atomic calculation performed for O: 1s2 2s2 2p4

 Converged in 60 iterations to an ae energy of -2027.926 eV

   ============================================================                
   | Pseudopotential Report - Date of generation  6-05-2016   |                
   ------------------------------------------------------------                
   | Element: O Ionic charge:  6.00 Level of theory: LDA      |                
   |                                                          |                
   |               Reference Electronic Structure             |                
   |         Orbital         Occupation         Energy        |                
   |            2s              2.000           -0.873        |                
   |            2p              4.000           -0.338        |                
   |                                                          |                
   |                 Pseudopotential Definition               |                
   |        Beta     l      e      Rc     scheme   norm       |                
   |          1      0   -0.873   1.300     qc      0         |                
   |          2      0    0.250   1.300     qc      0         |                
   |          3      1   -0.338   1.300     qc      0         |                
   |          4      1    0.250   1.300     qc      0         |                
   |         loc     2    0.000   1.004     pn      0         |                
   |                                                          |                
   | Augmentation charge Rinner = 0.701                       |                
   | Partial core correction Rc = 0.701                       |                
   ------------------------------------------------------------                
   | "2|1.0|1.3|0.7|13|16|18|20:21(qc=7)"                     |                
   ------------------------------------------------------------                
   |      Author: Chris J. Pickard, Cambridge University      |                
   ============================================================                

 Atomic calculation performed for Mg: 1s2 2s2 2p6 3s2

 Converged in 47 iterations to an ae energy of -5427.407 eV

 Identity difference:   5.17267234911703770E-004

   ============================================================                
   | Pseudopotential Report - Date of generation  6-05-2016   |                
   ------------------------------------------------------------                
   | Element: Mg Ionic charge:  8.00 Level of theory: LDA     |                
   |                                                          |                
   |               Reference Electronic Structure             |                
   |         Orbital         Occupation         Energy        |                
   |            2p              6.000           -1.717        |                
   |            3s              2.000           -0.176        |                
   |                                                          |                
   |                 Pseudopotential Definition               |                
   |        Beta     l      e      Rc     scheme   norm       |                
   |          1      0   -0.176   1.994     qc      1         |                
   |          2      1   -1.717   1.994     qc      0         |                
   |          3      1    0.000   1.994     qc      0         |                
   |          4      1    0.250   1.994     qc      0         |                
   |         loc     2    0.000   1.605     pn      0         |                
   |                                                          |                
   | Augmentation charge Rinner = 1.405                       |                
   | Partial core correction Rc = 1.405                       |                
   ------------------------------------------------------------                
   | "2|1.6|2|1.4|6|7|8|30NH:21U:31UU:32LGG(qc=4.5)[]"        |                
   ------------------------------------------------------------                
   |      Author: Chris J. Pickard, Cambridge University      |                
   ============================================================                

 Doing a self consistent calculation for the test configuration

 Atomic calculation performed for Mg: 1s2 2s2 2p6 3s2

 Converged in 47 iterations to an ae energy of -5427.407 eV

 ---------------------------------------
 AE eigenvalue nl 10 =      -46.06264936
 AE eigenvalue nl 20 =       -2.91364591
 AE eigenvalue nl 21 =       -1.71672732
 AE eigenvalue nl 30 =       -0.17593422
 ---------------------------------------
 PS eigenvalue nl 21 =       -1.71622098
 PS eigenvalue nl 30 =       -0.17592300
 ---------------------------------------

 Atomic calculation performed for Ca: 1s2 2s2 2p6 3s2 3p6 4s2

 Converged in 44 iterations to an ae energy of -18468.058 eV

   ============================================================                
   | Pseudopotential Report - Date of generation  6-05-2016   |                
   ------------------------------------------------------------                
   | Element: Ca Ionic charge: 10.00 Level of theory: LDA     |                
   |                                                          |                
   |               Reference Electronic Structure             |                
   |         Orbital         Occupation         Energy        |                
   |            3s              2.000           -1.721        |                
   |            3p              6.000           -1.028        |                
   |            4s              2.000           -0.142        |                
   |                                                          |                
   |                 Pseudopotential Definition               |                
   |        Beta     l      e      Rc     scheme   norm       |                
   |          1      0   -1.721   2.005     qc      0         |                
   |          2      0   -0.142   2.005     qc      0         |                
   |          3      1   -1.028   2.005     qc      0         |                
   |          4      1    0.250   2.005     qc      0         |                
   |          5      2    0.000   2.005     qc      0         |                
   |          6      2    1.000   2.005     qc      0         |                
   |         loc     3    0.000   1.601     pn      0         |                
   |                                                          |                
   | Augmentation charge Rinner = 1.401                       |                
   | Partial core correction Rc = 1.401                       |                
   ------------------------------------------------------------                
   | "3|1.6|2.0|1.4|7|9|10|30U:40U:31:32U=0U=1.0"             |                
   ------------------------------------------------------------                
   |      Author: Chris J. Pickard, Cambridge University      |                
   ============================================================                

 Pseudo atomic calculation performed for O 2s2 2p4

 Converged in 30 iterations to a total energy of -432.5600 eV


 Pseudo atomic calculation performed for Mg 2p6 3s2

 Converged in 23 iterations to a total energy of -1024.6674 eV


 Pseudo atomic calculation performed for Ca 3s2 3p6 4s2

 Converged in 24 iterations to a total energy of -1000.4575 eV

 Calculation parallelised over 2 processes.
 Data is distributed by k-point(2-way)

 ************************************ Title ************************************
 MgO

 ***************************** General Parameters ******************************
  
 output verbosity                               : normal  (1)
 write checkpoint data to                       : test_1.check
 type of calculation                            : geometry optimization
 stress calculation                             : on
 density difference calculation                 : off
 electron localisation func (ELF) calculation   : off
 Hirshfeld analysis                             : off
 unlimited duration calculation
 timing information                             : on
 memory usage estimate                          : on
 write final potential to formatted file        : off
 write final density to formatted file          : off
 write BibTeX reference list                    : on
  
 output         length unit                     : A
 output           mass unit                     : amu
 output           time unit                     : ps
 output         charge unit                     : e
 output         energy unit                     : eV
 output          force unit                     : eV/A
 output       velocity unit                     : A/ps
 output       pressure unit                     : GPa
 output     inv_length unit                     : 1/A
 output      frequency unit                     : cm-1
 output force constant unit                     : eV/A**2
 output         volume unit                     : A**3
 output   IR intensity unit                     : (D/A)**2/amu
 output         dipole unit                     : D
 output         efield unit                     : eV/A/e
 output        entropy unit                     : J/mol/K
  
 wavefunctions paging                           : none
 random number generator seed                   : randomised (12139659)
 data distribution                              : optimal for this architecture
 optimization strategy                          : maximize speed(+++)

 *********************** Exchange-Correlation Parameters ***********************
  
 using functional                               : Local Density Approximation
 Divergence correction                          : off
 DFT+D: Semi-empirical dispersion correction    : off

 ************************* Pseudopotential Parameters **************************
  
 pseudopotential representation                 : reciprocal space
 <beta|phi> representation                      : reciprocal space

 **************************** Basis Set Parameters *****************************
  
 plane wave basis set cut-off                   :   450.0000   eV
 size of standard grid                          :     2.0000
 size of   fine   gmax                          :    21.7358   1/A
 largest prime factor in FFT                    :          5
 finite basis set correction                    : automatic
 number of sample energies                      :          3
           sample  spacing                      :     5.0000   eV

 **************************** Electronic Parameters ****************************
  
 number of  electrons                           :  198.0    
 net charge of system                           :  0.000    
 net spin   of system                           :  0.000    
 number of  up  spins                           :  99.00    
 number of down spins                           :  99.00    
 treating system as non-spin-polarized
 number of bands                                :        119

 ********************* Electronic Minimization Parameters **********************
  
 Method: Treating system as metallic with density mixing treatment of electrons,
         and number of  SD  steps               :          1
         and number of  CG  steps               :          4
  
 total energy / atom convergence tol.           : 0.1000E-06   eV
 eigen-energy convergence tolerance             : 0.2727E-07   eV
 max force / atom convergence tol.              : ignored
 convergence tolerance window                   :          3   cycles
 max. number of SCF cycles                      :         60
 number of fixed-spin iterations                :         10
 smearing scheme                                : Gaussian
 smearing width                                 : 0.2000       eV
 Fermi energy convergence tolerance             : 0.2727E-08   eV
 periodic dipole correction                     : NONE

 ************************** Density Mixing Parameters **************************
  
 density-mixing scheme                          : Pulay
 max. length of mixing history                  :         30
 charge density mixing amplitude                : 0.8000    
 cut-off energy for mixing                      :  450.0       eV
 charge density mixing g-vector                 :  1.500       1/A

 *********************** Population Analysis Parameters ************************
  
 Population analysis with cutoff                :  3.000       A

 ********************** Geometry Optimization Parameters ***********************
  
 optimization method                            : BFGS
 variable cell method                           : fixed basis quality
 max. number of steps                           :         30
 estimated bulk modulus                         :  500.0       GPa
 estimated <frequency>                          :  1668.       cm-1
 geom line minimiser                            : on
 with line minimiser tolerance                  :     0.4000
 total energy convergence tolerance             : 0.2000E-04   eV/atom
        max ionic |force| tolerance             : 0.5000E-01   eV/A
 max ionic |displacement| tolerance             : 0.1000E-02   A
   max |stress component| tolerance             : 0.1000       GPa
 convergence tolerance window                   :          2   steps
 backup results every                           :          5   steps

 *******************************************************************************
  

                           -------------------------------
                                      Unit Cell
                           -------------------------------
        Real Lattice(A)                      Reciprocal Lattice(1/A)
   8.4000000   0.0000000   0.0000000        0.7479983   0.0000000   0.0000000
   0.0000000   8.4000000   0.0000000        0.0000000   0.7479983   0.0000000
   0.0000000   0.0000000   8.4000000        0.0000000   0.0000000   0.7479983

                       Lattice parameters(A)       Cell Angles
                    a =    8.400000          alpha =   90.000000
                    b =    8.400000          beta  =   90.000000
                    c =    8.400000          gamma =   90.000000

                       Current cell volume =  592.704000       A**3

                           -------------------------------
                                     Cell Contents
                           -------------------------------
                         Total number of ions in cell =   27
                      Total number of species in cell =    3
                        Max number of any one species =   14

            xxxxxxxxxxxxxxxxxxxxxxxxxxxxxxxxxxxxxxxxxxxxxxxxxxxxxxxxxxxx
            x  Element    Atom        Fractional coordinates of atoms  x
            x            Number           u          v          w      x
            x----------------------------------------------------------x
            x  O            1         0.000000   0.000000   0.000000   x
            x  O            2         0.666667   0.000000   0.000000   x
            x  O            3         0.333333   0.333333   0.000000   x
            x  O            4         0.000000   0.666667   0.000000   x
            x  O            5         0.666667   0.666667   0.000000   x
            x  O            6         0.333333   0.000000   0.333333   x
            x  O            7         0.000000   0.333333   0.333333   x
            x  O            8         0.666667   0.333333   0.333333   x
            x  O            9         0.333333   0.666667   0.333333   x
            x  O           10         0.000000   0.000000   0.666667   x
            x  O           11         0.666667   0.000000   0.666667   x
            x  O           12         0.333333   0.333333   0.666667   x
            x  O           13         0.000000   0.666667   0.666667   x
            x  O           14         0.666667   0.666667   0.666667   x
            x  Mg           1         0.333333   0.000000   0.000000   x
            x  Mg           2         0.000000   0.333333   0.000000   x
            x  Mg           3         0.666667   0.333333   0.000000   x
            x  Mg           4         0.333333   0.666667   0.000000   x
            x  Mg           5         0.666667   0.000000   0.333333   x
            x  Mg           6         0.333333   0.333333   0.333333   x
            x  Mg           7         0.000000   0.666667   0.333333   x
            x  Mg           8         0.666667   0.666667   0.333333   x
            x  Ca           1         0.000000   0.000000   0.333333   x
            x  Ca           2         0.333333   0.000000   0.666667   x
            x  Ca           3         0.000000   0.333333   0.666667   x
            x  Ca           4         0.666667   0.333333   0.666667   x
            x  Ca           5         0.333333   0.666667   0.666667   x
            xxxxxxxxxxxxxxxxxxxxxxxxxxxxxxxxxxxxxxxxxxxxxxxxxxxxxxxxxxxx


                         No user defined ionic velocities

                           -------------------------------
                                   Details of Species
                           -------------------------------

                               Mass of species in AMU
                                    O   15.9994000
                                    Mg   24.3050000
                                    Ca   40.0780000

                          Electric Quadrupole Moment (Barn)
                                    O   -0.0255800 Isotope 17
                                    Mg    0.1994000 Isotope 25
                                    Ca   -0.0408000 Isotope 43

                          Files used for pseudopotentials:
                                    O Pseudopotential generated on-the-fly
                                    Mg Pseudopotential generated on-the-fly
                                    Ca Pseudopotential generated on-the-fly

                           -------------------------------
                              k-Points For BZ Sampling
                           -------------------------------
                       MP grid size for SCF calculation is  3  3  3
                         Number of kpoints used =          10

             +++++++++++++++++++++++++++++++++++++++++++++++++++++++
             +  Number       Fractional coordinates        Weight  +
             +-----------------------------------------------------+
             +     1  -0.333333  -0.333333   0.000000   0.0740741  +
             +     2  -0.333333   0.000000  -0.333333   0.1481481  +
             +     3  -0.333333   0.333333   0.000000   0.0740741  +
             +     4   0.000000   0.000000  -0.333333   0.0740741  +
             +     5   0.000000   0.000000   0.000000   0.0370370  +
             +     6   0.000000   0.333333  -0.333333   0.1481481  +
             +     7   0.000000   0.333333   0.000000   0.1481481  +
             +     8   0.333333  -0.333333  -0.333333   0.1481481  +
             +     9   0.333333   0.333333  -0.333333   0.0740741  +
             +    10   0.333333   0.333333   0.333333   0.0740741  +
             +++++++++++++++++++++++++++++++++++++++++++++++++++++++

                           -------------------------------
                               Symmetry and Constraints
                           -------------------------------

                      Number of symmetry operations   =           2
                      Number of ionic constraints     =           3
                      Maximum deviation from symmetry =  0.00000         ANG
               Point group of crystal =     3: Cs, m, m
           Set iprint > 1 for details on symmetry rotations/translations

                          Centre of mass is constrained
             Set iprint > 1 for details of linear ionic constraints

                         Number of cell constraints= 5
                         Cell constraints are:  1 1 1 0 0 0

                         External pressure/stress (GPa)
                          0.00000   0.00000   0.00000
                                    0.00000   0.00000
                                              0.00000
  
+---------------- MEMORY AND SCRATCH DISK ESTIMATES PER NODE -----------------+
|                                                     Memory          Disk    |
| Model and support data                              708.3 MB         0.0 MB |
| Electronic energy minimisation requirements         284.0 MB         0.0 MB |
|                                               ----------------------------- |
| Approx. total storage required per node             992.3 MB         0.0 MB |
|                                                                             |
| Requirements will fluctuate during execution and may exceed these estimates |
+-----------------------------------------------------------------------------+
Calculating finite basis set correction with  3 cut-off energies.
Calculating total energy with cut-off of  440.000eV.
------------------------------------------------------------------------ <-- SCF
SCF loop      Energy           Fermi           Energy gain       Timer   <-- SCF
                               energy          per atom          (sec)   <-- SCF
------------------------------------------------------------------------ <-- SCF
Initial  -1.68378290E+004  0.00000000E+000                        86.21  <-- SCF
      1  -1.86775208E+004  4.02111537E+000   6.81367314E+001     267.86  <-- SCF
      2  -1.93649284E+004 -8.73509392E-001   2.54595402E+001     374.94  <-- SCF
      3  -1.93982341E+004 -1.53119221E+000   1.23354577E+000     486.11  <-- SCF
      4  -1.94697824E+004  3.55719265E+000   2.64993503E+000    1132.71  <-- SCF
      5  -1.93747105E+004  1.35656725E+000  -3.52117830E+000    1990.86  <-- SCF
      6  -1.93787349E+004  1.37888695E+000   1.49048359E-001    2100.26  <-- SCF
      7  -1.93686959E+004  4.31496313E-001  -3.71812926E-001    2870.95  <-- SCF
      8  -1.93687577E+004  7.66583654E-001   2.28884630E-003    3870.54  <-- SCF
      9  -1.93662985E+004  6.33824694E-001  -9.10821940E-002    5080.45  <-- SCF
     10  -1.93658631E+004  5.52956598E-001  -1.61244015E-002    6661.62  <-- SCF
     11  -1.93654447E+004  6.64199398E-001  -1.54958623E-002    8525.08  <-- SCF
     12  -1.93649202E+004  6.38468992E-001  -1.94287593E-002   10636.91  <-- SCF
     13  -1.93644062E+004  6.81508789E-001  -1.90373887E-002   13320.31  <-- SCF
     14  -1.93644070E+004  7.29028733E-001   2.99321927E-005   16517.87  <-- SCF
     15  -1.93642137E+004  7.22436466E-001  -7.15612784E-003   19555.54  <-- SCF
     16  -1.93641339E+004  7.26742966E-001  -2.95896646E-003   22489.71  <-- SCF
     17  -1.93641271E+004  7.16793940E-001  -2.49515649E-004   26038.23  <-- SCF
     18  -1.93641224E+004  7.17211066E-001  -1.76016625E-004   27394.90  <-- SCF
     19  -1.93641050E+004  7.16205888E-001  -6.43667237E-004   27704.69  <-- SCF
     20  -1.93641038E+004  7.16955697E-001  -4.22963857E-005   27887.98  <-- SCF
     21  -1.93641032E+004  7.17598213E-001  -2.49160494E-005   28017.72  <-- SCF
     22  -1.93641029E+004  7.18502829E-001  -9.53102822E-006   28270.65  <-- SCF
     23  -1.93641029E+004  7.18481147E-001   1.80668177E-007   28444.06  <-- SCF
     24  -1.93641029E+004  7.18541683E-001   7.84493131E-008   28610.38  <-- SCF
     25  -1.93641029E+004  7.18595698E-001  -1.72071587E-009   28688.24  <-- SCF
------------------------------------------------------------------------ <-- SCF
 
Final energy, E             =  -19363.38068604     eV
Final free energy (E-TS)    =  -19364.10291807     eV
(energies not corrected for finite basis set)
 
NB est. 0K energy (E-0.5TS)      =  -19363.74180205     eV
 
Calculating total energy with cut-off of  445.000eV.
------------------------------------------------------------------------ <-- SCF
SCF loop      Energy           Fermi           Energy gain       Timer   <-- SCF
                               energy          per atom          (sec)   <-- SCF
------------------------------------------------------------------------ <-- SCF
Initial  -1.93633807E+004  0.00000000E+000                     28732.83  <-- SCF
      1  -1.93644870E+004  7.13607204E-001   4.09755065E-002   28809.75  <-- SCF
      2  -1.93644871E+004  7.13608798E-001   4.74031258E-006   28919.12  <-- SCF
      3  -1.93645094E+004  7.34772568E-001   8.23961515E-004   29026.74  <-- SCF
      4  -1.93644888E+004  7.28166592E-001  -7.63899977E-004   29123.82  <-- SCF
      5  -1.93644935E+004  7.19005625E-001   1.73447174E-004   29241.48  <-- SCF
      6  -1.93644897E+004  7.06268588E-001  -1.39845046E-004   29339.81  <-- SCF
      7  -1.93644900E+004  7.06830191E-001   1.18320795E-005   29453.06  <-- SCF
      8  -1.93644878E+004  7.18668260E-001  -8.24036406E-005   29552.33  <-- SCF
      9  -1.93644868E+004  7.19668445E-001  -3.55920621E-005   29656.88  <-- SCF
     10  -1.93644877E+004  7.20351643E-001   3.31414995E-005   29758.75  <-- SCF
     11  -1.93644870E+004  7.19097117E-001  -2.58195839E-005   29854.23  <-- SCF
     12  -1.93644868E+004  7.19357369E-001  -6.23070035E-006   29952.32  <-- SCF
     13  -1.93644869E+004  7.18490846E-001   2.74649488E-006   30037.66  <-- SCF
     14  -1.93644868E+004  7.18998415E-001  -3.08581231E-006   30128.13  <-- SCF
     15  -1.93644868E+004  7.18776892E-001   1.79799913E-007   30223.48  <-- SCF
     16  -1.93644868E+004  7.18868119E-001  -4.59403065E-007   30310.23  <-- SCF
     17  -1.93644868E+004  7.18960710E-001   6.18009460E-008   30383.54  <-- SCF
     18  -1.93644868E+004  7.18957743E-001  -8.71855724E-008   30466.32  <-- SCF
------------------------------------------------------------------------ <-- SCF
 
Final energy, E             =  -19363.76477682     eV
Final free energy (E-TS)    =  -19364.48682298     eV
(energies not corrected for finite basis set)
 
NB est. 0K energy (E-0.5TS)      =  -19364.12579990     eV
 
Calculating total energy with cut-off of  450.000eV.
------------------------------------------------------------------------ <-- SCF
SCF loop      Energy           Fermi           Energy gain       Timer   <-- SCF
                               energy          per atom          (sec)   <-- SCF
------------------------------------------------------------------------ <-- SCF
Initial  -1.93637648E+004  0.00000000E+000                     30567.98  <-- SCF
      1  -1.93648316E+004  7.14420011E-001   3.95108472E-002   30660.01  <-- SCF
      2  -1.93648317E+004  7.14421830E-001   4.54387851E-006   30750.56  <-- SCF
      3  -1.93648764E+004  7.34332173E-001   1.65540806E-003   30856.22  <-- SCF
      4  -1.93648312E+004  7.27711571E-001  -1.67175199E-003   30966.39  <-- SCF
      5  -1.93648384E+004  7.22124824E-001   2.63947581E-004   31194.70  <-- SCF
      6  -1.93648336E+004  7.07853660E-001  -1.78256838E-004   31294.02  <-- SCF
      7  -1.93648350E+004  7.05534647E-001   5.30474531E-005   31394.29  <-- SCF
      8  -1.93648315E+004  7.18733231E-001  -1.29523221E-004   31499.34  <-- SCF
      9  -1.93648314E+004  7.19926801E-001  -2.84740677E-006   31599.06  <-- SCF
     10  -1.93648319E+004  7.20718901E-001   1.71160464E-005   31727.80  <-- SCF
     11  -1.93648316E+004  7.21147714E-001  -1.19168136E-005   31825.13  <-- SCF
     12  -1.93648313E+004  7.19573627E-001  -8.13774036E-006   31921.22  <-- SCF
     13  -1.93648314E+004  7.19066857E-001   2.00836335E-006   32035.02  <-- SCF
     14  -1.93648313E+004  7.19146876E-001  -2.10100209E-006   32130.53  <-- SCF
     15  -1.93648313E+004  7.19185463E-001   3.50151586E-008   32227.17  <-- SCF
     16  -1.93648313E+004  7.19259115E-001   6.71966013E-008   32336.20  <-- SCF
     17  -1.93648313E+004  7.19171473E-001  -5.32261369E-007   32432.28  <-- SCF
     18  -1.93648313E+004  7.19287706E-001  -7.08119607E-009   32515.37  <-- SCF
     19  -1.93648313E+004  7.19318189E-001  -9.78945023E-010   32590.38  <-- SCF
------------------------------------------------------------------------ <-- SCF
 
Final energy, E             =  -19364.10900148     eV
Final free energy (E-TS)    =  -19364.83132293     eV
(energies not corrected for finite basis set)
 
NB est. 0K energy (E-0.5TS)      =  -19364.47016221     eV
 
 For future reference: finite basis dEtot/dlog(Ecut) =     -31.602448eV
 Total energy corrected for finite basis set =  -19364.826110 eV
 
+---------------- MEMORY AND SCRATCH DISK ESTIMATES PER NODE -----------------+
|                                                     Memory          Disk    |
| Model and support data                              708.3 MB         0.0 MB |
| Electronic energy minimisation requirements         284.0 MB         0.0 MB |
| Geometry minimisation requirements                  406.0 MB         0.0 MB |
|                                               ----------------------------- |
| Approx. total storage required per node            1398.3 MB         0.0 MB |
|                                                                             |
| Requirements will fluctuate during execution and may exceed these estimates |
+-----------------------------------------------------------------------------+
 

 *********************************** Forces ***********************************
 *                                                                            *
 *                        Cartesian components (eV/A)                         *
 * -------------------------------------------------------------------------- *
 *                   x                    y                    z              *
 *                                                                            *
 * O         1      1.25737              1.25737              1.02265         *
 * O         2     -1.11472              1.24489              1.08093         *
 * O         3     -0.00502             -0.00502              0.93530         *
 * O         4      1.24489             -1.11472              1.08093         *
 * O         5     -1.25986             -1.25986              0.86566         *
 * O         6     -0.23132              1.10725              0.37723         *
 * O         7      1.10725             -0.23132              0.37723         *
 * O         8     -1.04267             -0.11403              0.35420         *
 * O         9     -0.11403             -1.04267              0.35420         *
 * O        10      1.42501              1.42501             -1.36754         *
 * O        11     -1.24441              1.37891             -1.36041         *
 * O        12     -0.00582             -0.00582             -1.18227         *
 * O        13      1.37891             -1.24441             -1.36041         *
 * O        14     -1.39463             -1.39463             -1.15010         *
 * Mg        1      0.03020              1.66731              2.77908         *
 * Mg        2      1.66731              0.03020              2.77908         *
 * Mg        3     -1.66638              0.00268              2.82160         *
 * Mg        4      0.00268             -1.66638              2.82160         *
 * Mg        5     -2.80554              1.76862             -0.05341         *
 * Mg        6      0.03300              0.03300             -0.17238         *
 * Mg        7      1.76862             -2.80554             -0.05341         *
 * Mg        8     -1.77262             -1.77262             -0.05293         *
 * Ca        1      2.69554              2.69554             -0.10160         *
 * Ca        2      0.04157              3.25438             -2.66777         *
 * Ca        3      3.25438              0.04157             -2.66777         *
 * Ca        4     -3.25674              0.00705             -2.72984         *
 * Ca        5      0.00705             -3.25674             -2.72984         *
 *                                                                            *
 ******************************************************************************

 ***************** Stress Tensor *****************
 *                                               *
 *          Cartesian components (GPa)           *
 * --------------------------------------------- *
 *             x             y             z     *
 *                                               *
 *  x     15.926802     -0.203818     -0.039697  *
 *  y     -0.203818     15.926802     -0.039697  *
 *  z     -0.039697     -0.039697     14.877410  *
 *                                               *
 *  Pressure:  -15.5770                          *
 *                                               *
 *************************************************

 *********** Constrained Stress Tensor ***********
 *                                               *
 *          Cartesian components (GPa)           *
 * --------------------------------------------- *
 *             x             y             z     *
 *                                               *
 *  x     15.906056     -0.000000     -0.000000  *
 *  y     -0.000000     15.906056     -0.000000  *
 *  z     -0.000000     -0.000000     15.906056  *
 *                                               *
 *  Pressure:  -15.9061                          *
 *                                               *
 *************************************************
 BFGS: finished iteration     0 with enthalpy= -1.93648261E+004 eV
  
 +-----------+-----------------+-----------------+------------+-----+ <-- BFGS
 | Parameter |      value      |    tolerance    |    units   | OK? | <-- BFGS
 +-----------+-----------------+-----------------+------------+-----+ <-- BFGS
 |  dE/ion   |   0.000000E+000 |   2.000000E-005 |         eV | No  | <-- BFGS
 |  |F|max   |   4.249522E+000 |   5.000000E-002 |       eV/A | No  | <-- BFGS
 |  |dR|max  |   0.000000E+000 |   1.000000E-003 |          A | No  | <-- BFGS
 |   Smax    |   1.557740E+001 |   1.000000E-001 |        GPa | No  | <-- BFGS
 +-----------+-----------------+-----------------+------------+-----+ <-- BFGS
  

================================================================================
 Starting BFGS iteration          1 ...
================================================================================
  
 +------------+-------------+-------------+-----------------+ <-- min BFGS
 |    Step    |   lambda    |   F.delta   |    enthalpy     | <-- min BFGS
 +------------+-------------+-------------+-----------------+ <-- min BFGS
 |  previous  |    0.000000 |    0.097681 |   -19364.826110 | <-- min BFGS
 +------------+-------------+-------------+-----------------+ <-- min BFGS
  

--------------------------------------------------------------------------------
 BFGS: starting iteration         1 with trial guess (lambda=  1.000000)
--------------------------------------------------------------------------------

                           -------------------------------
                                      Unit Cell
                           -------------------------------
        Real Lattice(A)              Reciprocal Lattice(1/A)
   8.3127665   0.0000000   0.0000000        0.7558477  -0.0000000  -0.0000000
   0.0000000   8.3127665   0.0000000       -0.0000000   0.7558477  -0.0000000
   0.0000000   0.0000000   8.3127665       -0.0000000  -0.0000000   0.7558477

                       Lattice parameters(A)       Cell Angles
                    a =    8.312767          alpha =   90.000000
                    b =    8.312767          beta  =   90.000000
                    c =    8.312767          gamma =   90.000000

                Current cell volume =  574.429520 A**3

                           -------------------------------
                                     Cell Contents
                           -------------------------------

            xxxxxxxxxxxxxxxxxxxxxxxxxxxxxxxxxxxxxxxxxxxxxxxxxxxxxxxxxxxx
            x  Element    Atom        Fractional coordinates of atoms  x
            x            Number           u          v          w      x
            x----------------------------------------------------------x
            x  O            1         0.000638   0.000638   0.000519   x
            x  O            2         0.666101   0.000632   0.000549   x
            x  O            3         0.333331   0.333331   0.000475   x
            x  O            4         0.000632   0.666101   0.000549   x
            x  O            5         0.666027   0.666027   0.000440   x
            x  O            6         0.333216   0.000562   0.333525   x
            x  O            7         0.000562   0.333216   0.333525   x
            x  O            8         0.666137   0.333275   0.333513   x
            x  O            9         0.333275   0.666137   0.333513   x
            x  O           10         0.000724   0.000724   0.665972   x
            x  O           11         0.666035   0.000700   0.665976   x
            x  O           12         0.333330   0.333330   0.666066   x
            x  O           13         0.000700   0.666035   0.665976   x
            x  O           14         0.665958   0.665958   0.666083   x
            x  Mg           1         0.333349   0.000847   0.001411   x
            x  Mg           2         0.000847   0.333349   0.001411   x
            x  Mg           3         0.665821   0.333335   0.001433   x
            x  Mg           4         0.333335   0.665821   0.001433   x
            x  Mg           5         0.665242   0.000898   0.333306   x
            x  Mg           6         0.333350   0.333350   0.333246   x
            x  Mg           7         0.000898   0.665242   0.333306   x
            x  Mg           8         0.665767   0.665767   0.333306   x
            x  Ca           1         0.001369   0.001369   0.333282   x
            x  Ca           2         0.333354   0.001653   0.665312   x
            x  Ca           3         0.001653   0.333354   0.665312   x
            x  Ca           4         0.665013   0.333337   0.665280   x
            x  Ca           5         0.333337   0.665013   0.665280   x
            xxxxxxxxxxxxxxxxxxxxxxxxxxxxxxxxxxxxxxxxxxxxxxxxxxxxxxxxxxxx


------------------------------------------------------------------------ <-- SCF
SCF loop      Energy           Fermi           Energy gain       Timer   <-- SCF
                               energy          per atom          (sec)   <-- SCF
------------------------------------------------------------------------ <-- SCF
Initial  -1.93608112E+004  0.00000000E+000                     32931.98  <-- SCF
      1  -1.93744278E+004  1.77637696E+000   5.04320714E-001   33041.49  <-- SCF
      2  -1.93746706E+004  1.77312604E+000   8.99224810E-003   33307.49  <-- SCF
      3  -1.93910700E+004  3.79836491E-001   6.07385001E-001   33428.71  <-- SCF
      4  -1.93711953E+004  1.18018493E+000  -7.36101432E-001   33558.71  <-- SCF
      5  -1.93706217E+004  1.25450266E+000  -2.12443628E-002   33666.94  <-- SCF
      6  -1.93686420E+004  1.16727519E+000  -7.33219425E-002   33783.65  <-- SCF
      7  -1.93687144E+004  1.11311540E+000   2.68273961E-003   33895.88  <-- SCF
      8  -1.93676548E+004  9.21622153E-001  -3.92438605E-002   34006.84  <-- SCF
      9  -1.93676624E+004  9.09477067E-001   2.79210901E-004   34111.87  <-- SCF
     10  -1.93676540E+004  9.23637893E-001  -3.11793742E-004   34277.80  <-- SCF
     11  -1.93675640E+004  9.04514825E-001  -3.33201641E-003   34398.61  <-- SCF
     12  -1.93675705E+004  8.94794558E-001   2.41887662E-004   34507.65  <-- SCF
     13  -1.93675498E+004  8.92356547E-001  -7.68936530E-004   34614.29  <-- SCF
     14  -1.93675347E+004  8.86298359E-001  -5.56247009E-004   34734.58  <-- SCF
     15  -1.93675313E+004  8.87336874E-001  -1.26277084E-004   34845.24  <-- SCF
     16  -1.93675312E+004  8.88615911E-001  -4.62207208E-006   34948.17  <-- SCF
     17  -1.93675306E+004  8.89141418E-001  -2.28877949E-005   35050.73  <-- SCF
     18  -1.93675306E+004  8.88915155E-001   1.24907049E-006   35147.35  <-- SCF
     19  -1.93675306E+004  8.88791188E-001  -9.69992557E-007   35260.51  <-- SCF
     20  -1.93675306E+004  8.88773949E-001  -1.46225444E-007   35363.97  <-- SCF
     21  -1.93675306E+004  8.88819788E-001  -3.55073809E-010   35434.77  <-- SCF
     22  -1.93675306E+004  8.88804561E-001   3.01165378E-009   35503.36  <-- SCF
------------------------------------------------------------------------ <-- SCF
 
Final energy, E             =  -19366.85208958     eV
Final free energy (E-TS)    =  -19367.53059177     eV
(energies not corrected for finite basis set)
 
NB est. 0K energy (E-0.5TS)      =  -19367.19134068     eV
 

 *********************************** Forces ***********************************
 *                                                                            *
 *                        Cartesian components (eV/A)                         *
 * -------------------------------------------------------------------------- *
 *                   x                    y                    z              *
 *                                                                            *
 * O         1      1.31506              1.31506              1.03130         *
 * O         2     -1.16580              1.29787              1.12070         *
 * O         3     -0.00569             -0.00569              0.98528         *
 * O         4      1.29787             -1.16580              1.12070         *
 * O         5     -1.31331             -1.31331              0.90104         *
 * O         6     -0.22034              1.16845              0.36668         *
 * O         7      1.16845             -0.22034              0.36668         *
 * O         8     -1.10126             -0.11729              0.34235         *
 * O         9     -0.11729             -1.10126              0.34235         *
 * O        10      1.45804              1.45804             -1.39852         *
 * O        11     -1.26763              1.40305             -1.41797         *
 * O        12     -0.00632             -0.00632             -1.24558         *
 * O        13      1.40305             -1.26763             -1.41797         *
 * O        14     -1.41917             -1.41917             -1.20248         *
 * Mg        1      0.03191              1.76658              2.83102         *
 * Mg        2      1.76658              0.03191              2.83102         *
 * Mg        3     -1.76544              0.00279              2.87754         *
 * Mg        4      0.00279             -1.76544              2.87754         *
 * Mg        5     -2.84361              1.84425             -0.05539         *
 * Mg        6      0.03711              0.03711             -0.19038         *
 * Mg        7      1.84425             -2.84361             -0.05539         *
 * Mg        8     -1.85245             -1.85245             -0.05443         *
 * Ca        1      2.70399              2.70399             -0.10630         *
 * Ca        2      0.04403              3.21582             -2.67859         *
 * Ca        3      3.21582              0.04403             -2.67859         *
 * Ca        4     -3.21802              0.00738             -2.74631         *
 * Ca        5      0.00738             -3.21802             -2.74631         *
 *                                                                            *
 ******************************************************************************

 ***************** Stress Tensor *****************
 *                                               *
 *          Cartesian components (GPa)           *
 * --------------------------------------------- *
 *             x             y             z     *
 *                                               *
 *  x     16.316261     -0.220514     -0.043616  *
 *  y     -0.220514     16.316261     -0.043616  *
 *  z     -0.043616     -0.043616     15.301900  *
 *                                               *
 *  Pressure:  -15.9781                          *
 *                                               *
 *************************************************

 *********** Constrained Stress Tensor ***********
 *                                               *
 *          Cartesian components (GPa)           *
 * --------------------------------------------- *
 *             x             y             z     *
 *                                               *
 *  x     16.320793      0.000000     -0.000000  *
 *  y      0.000000     16.320793     -0.000000  *
 *  z     -0.000000     -0.000000     16.320793  *
 *                                               *
 *  Pressure:  -16.3208                          *
 *                                               *
 *************************************************
  
 +------------+-------------+-------------+-----------------+ <-- min BFGS
 |    Step    |   lambda    |   F.delta   |    enthalpy     | <-- min BFGS
 +------------+-------------+-------------+-----------------+ <-- min BFGS
 |  previous  |    0.000000 |    0.097681 |   -19364.826110 | <-- min BFGS
 | trial step |    1.000000 |    0.098161 |   -19367.544310 | <-- min BFGS
 +------------+-------------+-------------+-----------------+ <-- min BFGS
  
 BFGS: finished iteration     1 with enthalpy= -1.93675443E+004 eV
  
 +-----------+-----------------+-----------------+------------+-----+ <-- BFGS
 | Parameter |      value      |    tolerance    |    units   | OK? | <-- BFGS
 +-----------+-----------------+-----------------+------------+-----+ <-- BFGS
 |  dE/ion   |   1.006741E-001 |   2.000000E-005 |         eV | No  | <-- BFGS
 |  |F|max   |   4.230596E+000 |   5.000000E-002 |       eV/A | No  | <-- BFGS
 |  |dR|max  |   1.793768E-002 |   1.000000E-003 |          A | No  | <-- BFGS
 |   Smax    |   1.597851E+001 |   1.000000E-001 |        GPa | No  | <-- BFGS
 +-----------+-----------------+-----------------+------------+-----+ <-- BFGS
  

================================================================================
 Starting BFGS iteration          2 ...
================================================================================
  
 +------------+-------------+-------------+-----------------+ <-- min BFGS
 |    Step    |   lambda    |   F.delta   |    enthalpy     | <-- min BFGS
 +------------+-------------+-------------+-----------------+ <-- min BFGS
 |  previous  |    0.000000 |    0.098658 |   -19367.544310 | <-- min BFGS
 +------------+-------------+-------------+-----------------+ <-- min BFGS
  

--------------------------------------------------------------------------------
 BFGS: starting iteration         2 with trial guess (lambda=  1.000000)
--------------------------------------------------------------------------------

                           -------------------------------
                                      Unit Cell
                           -------------------------------
        Real Lattice(A)              Reciprocal Lattice(1/A)
   8.2251357   0.0000000   0.0000000        0.7639005  -0.0000000  -0.0000000
   0.0000000   8.2251357   0.0000000       -0.0000000   0.7639005  -0.0000000
   0.0000000   0.0000000   8.2251357       -0.0000000  -0.0000000   0.7639005

                       Lattice parameters(A)       Cell Angles
                    a =    8.225136          alpha =   90.000000
                    b =    8.225136          beta  =   90.000000
                    c =    8.225136          gamma =   90.000000

                Current cell volume =  556.453935 A**3

                           -------------------------------
                                     Cell Contents
                           -------------------------------

            xxxxxxxxxxxxxxxxxxxxxxxxxxxxxxxxxxxxxxxxxxxxxxxxxxxxxxxxxxxx
            x  Element    Atom        Fractional coordinates of atoms  x
            x            Number           u          v          w      x
            x----------------------------------------------------------x
            x  O            1         0.001299   0.001299   0.001038   x
            x  O            2         0.665515   0.001284   0.001112   x
            x  O            3         0.333328   0.333328   0.000970   x
            x  O            4         0.001284   0.665515   0.001112   x
            x  O            5         0.665367   0.665367   0.000892   x
            x  O            6         0.333105   0.001149   0.333709   x
            x  O            7         0.001149   0.333105   0.333709   x
            x  O            8         0.665584   0.333216   0.333685   x
            x  O            9         0.333216   0.665584   0.333685   x
            x  O           10         0.001456   0.001456   0.665269   x
            x  O           11         0.665398   0.001405   0.665263   x
            x  O           12         0.333327   0.333327   0.665440   x
            x  O           13         0.001405   0.665398   0.665263   x
            x  O           14         0.665245   0.665245   0.665478   x
            x  Mg           1         0.333365   0.001734   0.002834   x
            x  Mg           2         0.001734   0.333365   0.002834   x
            x  Mg           3         0.664933   0.333336   0.002879   x
            x  Mg           4         0.333336   0.664933   0.002879   x
            x  Mg           5         0.663813   0.001825   0.333278   x
            x  Mg           6         0.333369   0.333369   0.333150   x
            x  Mg           7         0.001825   0.663813   0.333278   x
            x  Mg           8         0.664836   0.664836   0.333279   x
            x  Ca           1         0.002728   0.002728   0.333228   x
            x  Ca           2         0.333377   0.003269   0.663966   x
            x  Ca           3         0.003269   0.333377   0.663966   x
            x  Ca           4         0.663396   0.333341   0.663900   x
            x  Ca           5         0.333341   0.663396   0.663900   x
            xxxxxxxxxxxxxxxxxxxxxxxxxxxxxxxxxxxxxxxxxxxxxxxxxxxxxxxxxxxx


------------------------------------------------------------------------ <-- SCF
SCF loop      Energy           Fermi           Energy gain       Timer   <-- SCF
                               energy          per atom          (sec)   <-- SCF
------------------------------------------------------------------------ <-- SCF
Initial  -1.93635964E+004  0.00000000E+000                     35788.57  <-- SCF
      1  -1.93771100E+004  1.96286540E+000   5.00501747E-001   36255.79  <-- SCF
      2  -1.93773488E+004  1.95964718E+000   8.84548620E-003   38323.38  <-- SCF
      3  -1.93921361E+004  5.53924176E-001   5.47677882E-001   43598.13  <-- SCF
