 +-------------------------------------------------+
 |                                                 |
 |      CCC   AA    SSS  TTTTT  EEEEE  PPPP        |
 |     C     A  A  S       T    E      P   P       |
 |     C     AAAA   SS     T    EEE    PPPP        |
 |     C     A  A     S    T    E      P           |
 |      CCC  A  A  SSS     T    EEEEE  P           |
 |                                                 |
 +-------------------------------------------------+
 |                                                 |
 | Welcome to Academic Release CASTEP version 6.1  |
 | Ab Initio Total Energy Program                  |
 |                                                 |
 | Authors:                                        |
 | M. Segall, M. Probert, C. Pickard, P. Hasnip,   |
 | S. Clark, K. Refson, J. R. Yates, M. Payne      |
 |                                                 |
 | Contributors:                                   |
 | P. Lindan, P. Haynes, J. White, V. Milman,      |
 | N. Govind, M. Gibson, P. Tulip, V. Cocula,      |
 | B. Montanari, D. Quigley, M. Glover,            |
 | L. Bernasconi, A. Perlov, M. Plummer,           |
 | E. McNellis, J. Meyer, J. Gale, D. Jochym       |
 | J. Aarons, B. Walker, R. Gillen                 |
 |                                                 |
 | Copyright (c) 2000 - 2012                       |
 |                                                 |
 |     Distributed under the terms of an           |
 |     Agreement between the United Kingdom        |
 |     Car-Parrinello (UKCP) Consortium,           |
 |     Daresbury Laboratory and Accelrys, Inc.     |
 |                                                 |
 | Please cite                                     |
 |                                                 |
 |     "First principles methods using CASTEP"     |
 |                                                 |
 |         Zeitschrift fuer Kristallographie       |
 |           220(5-6) pp. 567-570 (2005)           |
 |                                                 |
 | S. J. Clark, M. D. Segall, C. J. Pickard,       |
 | P. J. Hasnip, M. J. Probert, K. Refson,         |
 | M. C. Payne                                     |
 |                                                 |
 |       in all publications arising from          |
 |              your use of CASTEP                 |
 |                                                 |
 +-------------------------------------------------+


 Compiled for linux_x86_64_gfortran on Wed Nov 21 15:08:09 2012
 from source code version eaed21d6e002+  2012-10-31
 using fast optimisation, fftw3 FFTs and openblas LAPACK and BLAS.


 Atomic calculation performed for O: 1s2 2s2 2p4

 Converged in 60 iterations to an ae energy of -2027.926 eV

   ============================================================                
   | Pseudopotential Report - Date of generation  6-05-2016   |                
   ------------------------------------------------------------                
   | Element: O Ionic charge:  6.00 Level of theory: LDA      |                
   |                                                          |                
   |               Reference Electronic Structure             |                
   |         Orbital         Occupation         Energy        |                
   |            2s              2.000           -0.873        |                
   |            2p              4.000           -0.338        |                
   |                                                          |                
   |                 Pseudopotential Definition               |                
   |        Beta     l      e      Rc     scheme   norm       |                
   |          1      0   -0.873   1.300     qc      0         |                
   |          2      0    0.250   1.300     qc      0         |                
   |          3      1   -0.338   1.300     qc      0         |                
   |          4      1    0.250   1.300     qc      0         |                
   |         loc     2    0.000   1.004     pn      0         |                
   |                                                          |                
   | Augmentation charge Rinner = 0.701                       |                
   | Partial core correction Rc = 0.701                       |                
   ------------------------------------------------------------                
   | "2|1.0|1.3|0.7|13|16|18|20:21(qc=7)"                     |                
   ------------------------------------------------------------                
   |      Author: Chris J. Pickard, Cambridge University      |                
   ============================================================                

 Atomic calculation performed for Mg: 1s2 2s2 2p6 3s2

 Converged in 47 iterations to an ae energy of -5427.407 eV

 Identity difference:   5.17267234911703770E-004

   ============================================================                
   | Pseudopotential Report - Date of generation  6-05-2016   |                
   ------------------------------------------------------------                
   | Element: Mg Ionic charge:  8.00 Level of theory: LDA     |                
   |                                                          |                
   |               Reference Electronic Structure             |                
   |         Orbital         Occupation         Energy        |                
   |            2p              6.000           -1.717        |                
   |            3s              2.000           -0.176        |                
   |                                                          |                
   |                 Pseudopotential Definition               |                
   |        Beta     l      e      Rc     scheme   norm       |                
   |          1      0   -0.176   1.994     qc      1         |                
   |          2      1   -1.717   1.994     qc      0         |                
   |          3      1    0.000   1.994     qc      0         |                
   |          4      1    0.250   1.994     qc      0         |                
   |         loc     2    0.000   1.605     pn      0         |                
   |                                                          |                
   | Augmentation charge Rinner = 1.405                       |                
   | Partial core correction Rc = 1.405                       |                
   ------------------------------------------------------------                
   | "2|1.6|2|1.4|6|7|8|30NH:21U:31UU:32LGG(qc=4.5)[]"        |                
   ------------------------------------------------------------                
   |      Author: Chris J. Pickard, Cambridge University      |                
   ============================================================                

 Doing a self consistent calculation for the test configuration

 Atomic calculation performed for Mg: 1s2 2s2 2p6 3s2

 Converged in 47 iterations to an ae energy of -5427.407 eV

 ---------------------------------------
 AE eigenvalue nl 10 =      -46.06264936
 AE eigenvalue nl 20 =       -2.91364591
 AE eigenvalue nl 21 =       -1.71672732
 AE eigenvalue nl 30 =       -0.17593422
 ---------------------------------------
 PS eigenvalue nl 21 =       -1.71622098
 PS eigenvalue nl 30 =       -0.17592300
 ---------------------------------------

 Atomic calculation performed for Ca: 1s2 2s2 2p6 3s2 3p6 4s2

 Converged in 44 iterations to an ae energy of -18468.058 eV

   ============================================================                
   | Pseudopotential Report - Date of generation  6-05-2016   |                
   ------------------------------------------------------------                
   | Element: Ca Ionic charge: 10.00 Level of theory: LDA     |                
   |                                                          |                
   |               Reference Electronic Structure             |                
   |         Orbital         Occupation         Energy        |                
   |            3s              2.000           -1.721        |                
   |            3p              6.000           -1.028        |                
   |            4s              2.000           -0.142        |                
   |                                                          |                
   |                 Pseudopotential Definition               |                
   |        Beta     l      e      Rc     scheme   norm       |                
   |          1      0   -1.721   2.005     qc      0         |                
   |          2      0   -0.142   2.005     qc      0         |                
   |          3      1   -1.028   2.005     qc      0         |                
   |          4      1    0.250   2.005     qc      0         |                
   |          5      2    0.000   2.005     qc      0         |                
   |          6      2    1.000   2.005     qc      0         |                
   |         loc     3    0.000   1.601     pn      0         |                
   |                                                          |                
   | Augmentation charge Rinner = 1.401                       |                
   | Partial core correction Rc = 1.401                       |                
   ------------------------------------------------------------                
   | "3|1.6|2.0|1.4|7|9|10|30U:40U:31:32U=0U=1.0"             |                
   ------------------------------------------------------------                
   |      Author: Chris J. Pickard, Cambridge University      |                
   ============================================================                

 Pseudo atomic calculation performed for O 2s2 2p4

 Converged in 30 iterations to a total energy of -432.5600 eV


 Pseudo atomic calculation performed for Mg 2p6 3s2

 Converged in 23 iterations to a total energy of -1024.6674 eV


 Pseudo atomic calculation performed for Ca 3s2 3p6 4s2

 Converged in 24 iterations to a total energy of -1000.4575 eV

 Calculation parallelised over 2 processes.
 Data is distributed by k-point(2-way)

 ************************************ Title ************************************
 MgO

 ***************************** General Parameters ******************************
  
 output verbosity                               : normal  (1)
 write checkpoint data to                       : test_4.check
 type of calculation                            : geometry optimization
 stress calculation                             : on
 density difference calculation                 : off
 electron localisation func (ELF) calculation   : off
 Hirshfeld analysis                             : off
 unlimited duration calculation
 timing information                             : on
 memory usage estimate                          : on
 write final potential to formatted file        : off
 write final density to formatted file          : off
 write BibTeX reference list                    : on
  
 output         length unit                     : A
 output           mass unit                     : amu
 output           time unit                     : ps
 output         charge unit                     : e
 output         energy unit                     : eV
 output          force unit                     : eV/A
 output       velocity unit                     : A/ps
 output       pressure unit                     : GPa
 output     inv_length unit                     : 1/A
 output      frequency unit                     : cm-1
 output force constant unit                     : eV/A**2
 output         volume unit                     : A**3
 output   IR intensity unit                     : (D/A)**2/amu
 output         dipole unit                     : D
 output         efield unit                     : eV/A/e
 output        entropy unit                     : J/mol/K
  
 wavefunctions paging                           : none
 random number generator seed                   : randomised (12309056)
 data distribution                              : optimal for this architecture
 optimization strategy                          : maximize speed(+++)

 *********************** Exchange-Correlation Parameters ***********************
  
 using functional                               : Local Density Approximation
 Divergence correction                          : off
 DFT+D: Semi-empirical dispersion correction    : off

 ************************* Pseudopotential Parameters **************************
  
 pseudopotential representation                 : reciprocal space
 <beta|phi> representation                      : reciprocal space

 **************************** Basis Set Parameters *****************************
  
 plane wave basis set cut-off                   :   450.0000   eV
 size of standard grid                          :     2.0000
 size of   fine   gmax                          :    21.7358   1/A
 largest prime factor in FFT                    :          5
 finite basis set correction                    : automatic
 number of sample energies                      :          3
           sample  spacing                      :     5.0000   eV

 **************************** Electronic Parameters ****************************
  
 number of  electrons                           :  204.0    
 net charge of system                           :  0.000    
 net spin   of system                           :  0.000    
 number of  up  spins                           :  102.0    
 number of down spins                           :  102.0    
 treating system as non-spin-polarized
 number of bands                                :        122

 ********************* Electronic Minimization Parameters **********************
  
 Method: Treating system as metallic with density mixing treatment of electrons,
         and number of  SD  steps               :          1
         and number of  CG  steps               :          4
  
 total energy / atom convergence tol.           : 0.1000E-06   eV
 eigen-energy convergence tolerance             : 0.2647E-07   eV
 max force / atom convergence tol.              : ignored
 convergence tolerance window                   :          3   cycles
 max. number of SCF cycles                      :         60
 number of fixed-spin iterations                :         10
 smearing scheme                                : Gaussian
 smearing width                                 : 0.2000       eV
 Fermi energy convergence tolerance             : 0.2647E-08   eV
 periodic dipole correction                     : NONE

 ************************** Density Mixing Parameters **************************
  
 density-mixing scheme                          : Pulay
 max. length of mixing history                  :         30
 charge density mixing amplitude                : 0.8000    
 cut-off energy for mixing                      :  450.0       eV
 charge density mixing g-vector                 :  1.500       1/A

 *********************** Population Analysis Parameters ************************
  
 Population analysis with cutoff                :  3.000       A

 ********************** Geometry Optimization Parameters ***********************
  
 optimization method                            : BFGS
 variable cell method                           : fixed basis quality
 max. number of steps                           :         30
 estimated bulk modulus                         :  500.0       GPa
 estimated <frequency>                          :  1668.       cm-1
 geom line minimiser                            : on
 with line minimiser tolerance                  :     0.4000
 total energy convergence tolerance             : 0.2000E-04   eV/atom
        max ionic |force| tolerance             : 0.5000E-01   eV/A
 max ionic |displacement| tolerance             : 0.1000E-02   A
   max |stress component| tolerance             : 0.1000       GPa
 convergence tolerance window                   :          2   steps
 backup results every                           :          5   steps

 *******************************************************************************
  

                           -------------------------------
                                      Unit Cell
                           -------------------------------
        Real Lattice(A)                      Reciprocal Lattice(1/A)
   8.4000000   0.0000000   0.0000000        0.7479983   0.0000000   0.0000000
   0.0000000   8.4000000   0.0000000        0.0000000   0.7479983   0.0000000
   0.0000000   0.0000000   8.4000000        0.0000000   0.0000000   0.7479983

                       Lattice parameters(A)       Cell Angles
                    a =    8.400000          alpha =   90.000000
                    b =    8.400000          beta  =   90.000000
                    c =    8.400000          gamma =   90.000000

                       Current cell volume =  592.704000       A**3

                           -------------------------------
                                     Cell Contents
                           -------------------------------
                         Total number of ions in cell =   27
                      Total number of species in cell =    3
                        Max number of any one species =   14

            xxxxxxxxxxxxxxxxxxxxxxxxxxxxxxxxxxxxxxxxxxxxxxxxxxxxxxxxxxxx
            x  Element    Atom        Fractional coordinates of atoms  x
            x            Number           u          v          w      x
            x----------------------------------------------------------x
            x  O            1         0.000000   0.000000   0.000000   x
            x  O            2         0.666667   0.000000   0.000000   x
            x  O            3         0.333333   0.333333   0.000000   x
            x  O            4         0.000000   0.666667   0.000000   x
            x  O            5         0.666667   0.666667   0.000000   x
            x  O            6         0.333333   0.000000   0.333333   x
            x  O            7         0.000000   0.333333   0.333333   x
            x  O            8         0.666667   0.333333   0.333333   x
            x  O            9         0.333333   0.666667   0.333333   x
            x  O           10         0.000000   0.000000   0.666667   x
            x  O           11         0.666667   0.000000   0.666667   x
            x  O           12         0.333333   0.333333   0.666667   x
            x  O           13         0.000000   0.666667   0.666667   x
            x  O           14         0.666667   0.666667   0.666667   x
            x  Mg           1         0.333333   0.000000   0.000000   x
            x  Mg           2         0.000000   0.333333   0.000000   x
            x  Mg           3         0.666667   0.333333   0.000000   x
            x  Mg           4         0.333333   0.666667   0.000000   x
            x  Mg           5         0.333333   0.333333   0.333333   x
            x  Ca           1         0.000000   0.000000   0.333333   x
            x  Ca           2         0.666667   0.000000   0.333333   x
            x  Ca           3         0.000000   0.666667   0.333333   x
            x  Ca           4         0.666667   0.666667   0.333333   x
            x  Ca           5         0.333333   0.000000   0.666667   x
            x  Ca           6         0.000000   0.333333   0.666667   x
            x  Ca           7         0.666667   0.333333   0.666667   x
            x  Ca           8         0.333333   0.666667   0.666667   x
            xxxxxxxxxxxxxxxxxxxxxxxxxxxxxxxxxxxxxxxxxxxxxxxxxxxxxxxxxxxx


                         No user defined ionic velocities

                           -------------------------------
                                   Details of Species
                           -------------------------------

                               Mass of species in AMU
                                    O   15.9994000
                                    Mg   24.3050000
                                    Ca   40.0780000

                          Electric Quadrupole Moment (Barn)
                                    O   -0.0255800 Isotope 17
                                    Mg    0.1994000 Isotope 25
                                    Ca   -0.0408000 Isotope 43

                          Files used for pseudopotentials:
                                    O Pseudopotential generated on-the-fly
                                    Mg Pseudopotential generated on-the-fly
                                    Ca Pseudopotential generated on-the-fly

                           -------------------------------
                              k-Points For BZ Sampling
                           -------------------------------
                       MP grid size for SCF calculation is  3  3  3
                         Number of kpoints used =           6

             +++++++++++++++++++++++++++++++++++++++++++++++++++++++
             +  Number       Fractional coordinates        Weight  +
             +-----------------------------------------------------+
             +     1  -0.333333  -0.333333   0.000000   0.1481481  +
             +     2  -0.333333   0.000000  -0.333333   0.2962963  +
             +     3   0.000000   0.000000  -0.333333   0.0740741  +
             +     4   0.000000   0.000000   0.000000   0.0370370  +
             +     5   0.000000   0.333333   0.000000   0.1481481  +
             +     6   0.333333   0.333333  -0.333333   0.2962963  +
             +++++++++++++++++++++++++++++++++++++++++++++++++++++++

                           -------------------------------
                               Symmetry and Constraints
                           -------------------------------

                      Number of symmetry operations   =           8
                      Number of ionic constraints     =           3
                      Maximum deviation from symmetry = 0.839999E-09     ANG
               Point group of crystal =    12: C4v, 4mm, 4 mm
           Set iprint > 1 for details on symmetry rotations/translations

                          Centre of mass is constrained
             Set iprint > 1 for details of linear ionic constraints

                         Number of cell constraints= 5
                         Cell constraints are:  1 1 1 0 0 0

                         External pressure/stress (GPa)
                          0.00000   0.00000   0.00000
                                    0.00000   0.00000
                                              0.00000
  
+---------------- MEMORY AND SCRATCH DISK ESTIMATES PER NODE -----------------+
|                                                     Memory          Disk    |
| Model and support data                              663.2 MB         0.0 MB |
| Electronic energy minimisation requirements         191.7 MB         0.0 MB |
|                                               ----------------------------- |
| Approx. total storage required per node             855.0 MB         0.0 MB |
|                                                                             |
| Requirements will fluctuate during execution and may exceed these estimates |
+-----------------------------------------------------------------------------+
Calculating finite basis set correction with  3 cut-off energies.
Calculating total energy with cut-off of  440.000eV.
------------------------------------------------------------------------ <-- SCF
SCF loop      Energy           Fermi           Energy gain       Timer   <-- SCF
                               energy          per atom          (sec)   <-- SCF
------------------------------------------------------------------------ <-- SCF
Initial  -1.68512454E+004  0.00000000E+000                        35.90  <-- SCF
      1  -1.85979562E+004  4.57160402E+000   6.46929904E+001      96.79  <-- SCF
      2  -1.93009005E+004 -6.42506117E-001   2.60349746E+001     142.20  <-- SCF
      3  -1.93301677E+004 -8.82633136E-001   1.08397058E+000     188.63  <-- SCF
      4  -1.94039355E+004  3.91175803E+000   2.73214195E+000     246.53  <-- SCF
      5  -1.94130505E+004  3.76150607E+000   3.37589730E-001     305.28  <-- SCF
      6  -1.92991831E+004  1.21198608E+000  -4.21731006E+000     365.84  <-- SCF
      7  -1.93045668E+004  1.23621869E+000   1.99397145E-001     418.05  <-- SCF
      8  -1.93055792E+004  1.28089310E+000   3.74964503E-002     472.96  <-- SCF
      9  -1.93000832E+004  1.07230776E+000  -2.03555761E-001     528.41  <-- SCF
     10  -1.92991691E+004  1.13129090E+000  -3.38567082E-002     586.88  <-- SCF
     11  -1.92977712E+004  1.28684575E+000  -5.17728331E-002     644.40  <-- SCF
     12  -1.92975252E+004  1.35566814E+000  -9.11230931E-003     702.39  <-- SCF
     13  -1.92973615E+004  1.34029744E+000  -6.06301882E-003     757.24  <-- SCF
     14  -1.92974021E+004  1.35016075E+000   1.50294426E-003     811.55  <-- SCF
     15  -1.92972731E+004  1.35216160E+000  -4.77538549E-003     867.40  <-- SCF
     16  -1.92972728E+004  1.36114183E+000  -1.10145108E-005     929.67  <-- SCF
     17  -1.92972721E+004  1.36086485E+000  -2.66160120E-005     988.49  <-- SCF
     18  -1.92972721E+004  1.36008729E+000  -8.62303907E-007    1043.71  <-- SCF
     19  -1.92972720E+004  1.36059881E+000  -2.67816592E-006    1091.40  <-- SCF
     20  -1.92972720E+004  1.36090118E+000  -1.47350383E-006    1132.93  <-- SCF
     21  -1.92972720E+004  1.36096200E+000  -1.54973505E-007    1169.65  <-- SCF
     22  -1.92972720E+004  1.36102600E+000   5.56683320E-009    1205.06  <-- SCF
     23  -1.92972720E+004  1.36102310E+000   4.21551326E-009    1240.35  <-- SCF
------------------------------------------------------------------------ <-- SCF
 
Final energy, E             =  -19296.51740606     eV
Final free energy (E-TS)    =  -19297.27195967     eV
(energies not corrected for finite basis set)
 
NB est. 0K energy (E-0.5TS)      =  -19296.89468287     eV
 
Calculating total energy with cut-off of  445.000eV.
------------------------------------------------------------------------ <-- SCF
SCF loop      Energy           Fermi           Energy gain       Timer   <-- SCF
                               energy          per atom          (sec)   <-- SCF
------------------------------------------------------------------------ <-- SCF
Initial  -1.92965174E+004  0.00000000E+000                      1255.98  <-- SCF
      1  -1.92976548E+004  1.35599576E+000   4.21262636E-002    1299.18  <-- SCF
      2  -1.92976549E+004  1.35599752E+000   4.70730721E-006    1347.95  <-- SCF
      3  -1.92976621E+004  1.38005894E+000   2.66773238E-004    1400.48  <-- SCF
      4  -1.92976603E+004  1.36157274E+000  -6.86846668E-005    1452.18  <-- SCF
      5  -1.92976596E+004  1.34955479E+000  -2.37258590E-005    1504.33  <-- SCF
      6  -1.92976597E+004  1.36007644E+000   9.32863340E-008    1556.39  <-- SCF
      7  -1.92976546E+004  1.35655701E+000  -1.86808626E-004    1606.60  <-- SCF
      8  -1.92976551E+004  1.36250527E+000   1.67961029E-005    1661.83  <-- SCF
      9  -1.92976548E+004  1.36397088E+000  -8.08914933E-006    1710.66  <-- SCF
     10  -1.92976547E+004  1.36156474E+000  -4.03626515E-006    1757.39  <-- SCF
     11  -1.92976547E+004  1.36113980E+000  -1.22319009E-006    1801.98  <-- SCF
     12  -1.92976547E+004  1.36110277E+000  -1.91511047E-007    1841.13  <-- SCF
     13  -1.92976547E+004  1.36119409E+000  -2.73632550E-008    1876.01  <-- SCF
     14  -1.92976547E+004  1.36136314E+000   6.25933598E-009    1910.77  <-- SCF
------------------------------------------------------------------------ <-- SCF
 
Final energy, E             =  -19296.89994416     eV
Final free energy (E-TS)    =  -19297.65469564     eV
(energies not corrected for finite basis set)
 
NB est. 0K energy (E-0.5TS)      =  -19297.27731990     eV
 
Calculating total energy with cut-off of  450.000eV.
------------------------------------------------------------------------ <-- SCF
SCF loop      Energy           Fermi           Energy gain       Timer   <-- SCF
                               energy          per atom          (sec)   <-- SCF
------------------------------------------------------------------------ <-- SCF
Initial  -1.92968999E+004  0.00000000E+000                      1926.50  <-- SCF
      1  -1.92979988E+004  1.35601793E+000   4.06975758E-002    1970.48  <-- SCF
      2  -1.92979989E+004  1.35601982E+000   4.68113281E-006    2023.45  <-- SCF
      3  -1.92980401E+004  1.38868548E+000   1.52496600E-003    2079.18  <-- SCF
      4  -1.92980003E+004  1.36964601E+000  -1.47224553E-003    2132.07  <-- SCF
      5  -1.92980017E+004  1.35074207E+000   5.14784836E-005    2187.85  <-- SCF
      6  -1.92980052E+004  1.36223167E+000   1.27577265E-004    2241.37  <-- SCF
      7  -1.92979982E+004  1.35704452E+000  -2.57707466E-004    2293.32  <-- SCF
      8  -1.92979988E+004  1.36201748E+000   2.31231325E-005    2345.79  <-- SCF
      9  -1.92979985E+004  1.36459703E+000  -1.04434080E-005    2396.50  <-- SCF
     10  -1.92979985E+004  1.36244225E+000  -1.18187492E-006    2443.55  <-- SCF
     11  -1.92979984E+004  1.36164692E+000  -3.32695749E-006    2489.51  <-- SCF
     12  -1.92979984E+004  1.36140166E+000  -1.47377515E-007    2533.78  <-- SCF
     13  -1.92979984E+004  1.36145828E+000  -5.28417199E-008    2568.98  <-- SCF
     14  -1.92979984E+004  1.36158690E+000  -1.15647047E-008    2603.59  <-- SCF
------------------------------------------------------------------------ <-- SCF
 
Final energy, E             =  -19297.24327981     eV
Final free energy (E-TS)    =  -19297.99841458     eV
(energies not corrected for finite basis set)
 
NB est. 0K energy (E-0.5TS)      =  -19297.62084720     eV
 
 For future reference: finite basis dEtot/dlog(Ecut) =     -31.517817eV
 Total energy corrected for finite basis set =  -19297.993215 eV
 
+---------------- MEMORY AND SCRATCH DISK ESTIMATES PER NODE -----------------+
|                                                     Memory          Disk    |
| Model and support data                              663.2 MB         0.0 MB |
| Electronic energy minimisation requirements         191.7 MB         0.0 MB |
| Geometry minimisation requirements                  267.6 MB         0.0 MB |
|                                               ----------------------------- |
| Approx. total storage required per node            1122.6 MB         0.0 MB |
|                                                                             |
| Requirements will fluctuate during execution and may exceed these estimates |
+-----------------------------------------------------------------------------+
 

 *********************************** Forces ***********************************
 *                                                                            *
 *                        Cartesian components (eV/A)                         *
 * -------------------------------------------------------------------------- *
 *                   x                    y                    z              *
 *                                                                            *
 * O         1      1.20061              1.20061              1.34344         *
 * O         2     -1.20061              1.20061              1.34344         *
 * O         3      0.00000              0.00000              0.98633         *
 * O         4      1.20061             -1.20061              1.34344         *
 * O         5     -1.20061             -1.20061              1.34344         *
 * O         6      0.00000              1.10300              0.39597         *
 * O         7      1.10300              0.00000              0.39597         *
 * O         8     -1.10300              0.00000              0.39597         *
 * O         9      0.00000             -1.10300              0.39597         *
 * O        10      1.36428              1.36428             -1.68960         *
 * O        11     -1.36428              1.36428             -1.68960         *
 * O        12      0.00000              0.00000             -1.23129         *
 * O        13      1.36428             -1.36428             -1.68960         *
 * O        14     -1.36428             -1.36428             -1.68960         *
 * Mg        1      0.00000              1.68067              2.69902         *
 * Mg        2      1.68067              0.00000              2.69902         *
 * Mg        3     -1.68067             -0.00000              2.69902         *
 * Mg        4      0.00000             -1.68067              2.69902         *
 * Mg        5      0.00000              0.00000             -0.17091         *
 * Ca        1      3.46885              3.46885             -0.09957         *
 * Ca        2     -3.46885              3.46885             -0.09957         *
 * Ca        3      3.46885             -3.46885             -0.09957         *
 * Ca        4     -3.46885             -3.46885             -0.09957         *
 * Ca        5     -0.00000              3.28656             -2.54529         *
 * Ca        6      3.28656              0.00000             -2.54529         *
 * Ca        7     -3.28656              0.00000             -2.54529         *
 * Ca        8      0.00000             -3.28656             -2.54529         *
 *                                                                            *
 ******************************************************************************

 ***************** Stress Tensor *****************
 *                                               *
 *          Cartesian components (GPa)           *
 * --------------------------------------------- *
 *             x             y             z     *
 *                                               *
 *  x     14.993301      0.000000      0.000000  *
 *  y      0.000000     14.993301      0.000000  *
 *  z      0.000000      0.000000     15.447103  *
 *                                               *
 *  Pressure:  -15.1446                          *
 *                                               *
 *************************************************

 *********** Constrained Stress Tensor ***********
 *                                               *
 *          Cartesian components (GPa)           *
 * --------------------------------------------- *
 *             x             y             z     *
 *                                               *
 *  x     15.455152      0.000000      0.000000  *
 *  y      0.000000     15.455152      0.000000  *
 *  z      0.000000      0.000000     15.455152  *
 *                                               *
 *  Pressure:  -15.4552                          *
 *                                               *
 *************************************************
 BFGS: finished iteration     0 with enthalpy= -1.92979932E+004 eV
  
 +-----------+-----------------+-----------------+------------+-----+ <-- BFGS
 | Parameter |      value      |    tolerance    |    units   | OK? | <-- BFGS
 +-----------+-----------------+-----------------+------------+-----+ <-- BFGS
 |  dE/ion   |   0.000000E+000 |   2.000000E-005 |         eV | No  | <-- BFGS
 |  |F|max   |   4.906710E+000 |   5.000000E-002 |       eV/A | No  | <-- BFGS
 |  |dR|max  |   0.000000E+000 |   1.000000E-003 |          A | No  | <-- BFGS
 |   Smax    |   1.514464E+001 |   1.000000E-001 |        GPa | No  | <-- BFGS
 +-----------+-----------------+-----------------+------------+-----+ <-- BFGS
  

================================================================================
 Starting BFGS iteration          1 ...
================================================================================
  
 +------------+-------------+-------------+-----------------+ <-- min BFGS
 |    Step    |   lambda    |   F.delta   |    enthalpy     | <-- min BFGS
 +------------+-------------+-------------+-----------------+ <-- min BFGS
 |  previous  |    0.000000 |    0.100067 |   -19297.993215 | <-- min BFGS
 +------------+-------------+-------------+-----------------+ <-- min BFGS
  

--------------------------------------------------------------------------------
 BFGS: starting iteration         1 with trial guess (lambda=  1.000000)
--------------------------------------------------------------------------------

                           -------------------------------
                                      Unit Cell
                           -------------------------------
        Real Lattice(A)              Reciprocal Lattice(1/A)
   8.3151900   0.0000000   0.0000000        0.7556274   0.0000000   0.0000000
   0.0000000   8.3151900   0.0000000        0.0000000   0.7556274   0.0000000
   0.0000000   0.0000000   8.3151900        0.0000000   0.0000000   0.7556274

                       Lattice parameters(A)       Cell Angles
                    a =    8.315190          alpha =   90.000000
                    b =    8.315190          beta  =   90.000000
                    c =    8.315190          gamma =   90.000000

                Current cell volume =  574.932065 A**3

                           -------------------------------
                                     Cell Contents
                           -------------------------------

            xxxxxxxxxxxxxxxxxxxxxxxxxxxxxxxxxxxxxxxxxxxxxxxxxxxxxxxxxxxx
            x  Element    Atom        Fractional coordinates of atoms  x
            x            Number           u          v          w      x
            x----------------------------------------------------------x
            x  O            1         0.000566   0.000566   0.000634   x
            x  O            2         0.666100   0.000566   0.000634   x
            x  O            3         0.333333   0.333333   0.000465   x
            x  O            4         0.000566   0.666100   0.000634   x
            x  O            5         0.666100   0.666100   0.000634   x
            x  O            6         0.333333   0.000520   0.333520   x
            x  O            7         0.000520   0.333333   0.333520   x
            x  O            8         0.666146   0.333333   0.333520   x
            x  O            9         0.333333   0.666146   0.333520   x
            x  O           10         0.000644   0.000644   0.665870   x
            x  O           11         0.666023   0.000644   0.665870   x
            x  O           12         0.333333   0.333333   0.666086   x
            x  O           13         0.000644   0.666023   0.665870   x
            x  O           14         0.666023   0.666023   0.665870   x
            x  Mg           1         0.333333   0.000793   0.001273   x
            x  Mg           2         0.000793   0.333333   0.001273   x
            x  Mg           3         0.665874   0.333333   0.001273   x
            x  Mg           4         0.333333   0.665874   0.001273   x
            x  Mg           5         0.333333   0.333333   0.333253   x
            x  Ca           1         0.001636   0.001636   0.333286   x
            x  Ca           2         0.665030   0.001636   0.333286   x
            x  Ca           3         0.001636   0.665030   0.333286   x
            x  Ca           4         0.665030   0.665030   0.333286   x
            x  Ca           5         0.333333   0.001550   0.665466   x
            x  Ca           6         0.001550   0.333333   0.665466   x
            x  Ca           7         0.665116   0.333333   0.665466   x
            x  Ca           8         0.333333   0.665116   0.665466   x
            xxxxxxxxxxxxxxxxxxxxxxxxxxxxxxxxxxxxxxxxxxxxxxxxxxxxxxxxxxxx


------------------------------------------------------------------------ <-- SCF
SCF loop      Energy           Fermi           Energy gain       Timer   <-- SCF
                               energy          per atom          (sec)   <-- SCF
------------------------------------------------------------------------ <-- SCF
Initial  -1.92928497E+004  0.00000000E+000                      2798.45  <-- SCF
      1  -1.93096636E+004  2.51828080E+000   6.22738272E-001    2844.29  <-- SCF
      2  -1.93100229E+004  2.51372452E+000   1.33081211E-002    2911.67  <-- SCF
      3  -1.93151149E+004  9.75604984E-001   1.88593322E-001    2965.04  <-- SCF
      4  -1.93056657E+004  2.23070603E+000  -3.49969988E-001    3019.55  <-- SCF
      5  -1.93033516E+004  1.91708591E+000  -8.57096414E-002    3073.90  <-- SCF
      6  -1.93013027E+004  1.77078140E+000  -7.58864340E-002    3130.28  <-- SCF
      7  -1.93008748E+004  1.61450653E+000  -1.58471559E-002    3183.52  <-- SCF
      8  -1.93008174E+004  1.61408922E+000  -2.12633250E-003    3240.02  <-- SCF
      9  -1.93007727E+004  1.54053042E+000  -1.65424446E-003    3292.80  <-- SCF
     10  -1.93007801E+004  1.54698537E+000   2.73085606E-004    3346.08  <-- SCF
     11  -1.93007669E+004  1.54428921E+000  -4.87826939E-004    3398.05  <-- SCF
     12  -1.93007699E+004  1.54140305E+000   1.10217420E-004    3455.99  <-- SCF
     13  -1.93007661E+004  1.54379003E+000  -1.40708718E-004    3507.76  <-- SCF
     14  -1.93007665E+004  1.54443732E+000   1.43457854E-005    3559.19  <-- SCF
     15  -1.93007663E+004  1.54358015E+000  -5.97978301E-006    3604.10  <-- SCF
     16  -1.93007663E+004  1.54330047E+000   5.63021943E-007    3642.49  <-- SCF
     17  -1.93007663E+004  1.54343698E+000  -1.17435134E-007    3677.55  <-- SCF
     18  -1.93007663E+004  1.54351073E+000  -6.84906328E-009    3712.39  <-- SCF
     19  -1.93007663E+004  1.54351146E+000   2.59539591E-009    3747.19  <-- SCF
------------------------------------------------------------------------ <-- SCF
 
Final energy, E             =  -19300.05896087     eV
Final free energy (E-TS)    =  -19300.76632347     eV
(energies not corrected for finite basis set)
 
NB est. 0K energy (E-0.5TS)      =  -19300.41264217     eV
 

 *********************************** Forces ***********************************
 *                                                                            *
 *                        Cartesian components (eV/A)                         *
 * -------------------------------------------------------------------------- *
 *                   x                    y                    z              *
 *                                                                            *
 * O         1      1.25269              1.25269              1.37253         *
 * O         2     -1.25269              1.25269              1.37253         *
 * O         3      0.00000              0.00000              1.04127         *
 * O         4      1.25269             -1.25269              1.37253         *
 * O         5     -1.25269             -1.25269              1.37253         *
 * O         6     -0.00000              1.17824              0.38695         *
 * O         7      1.17824              0.00000              0.38695         *
 * O         8     -1.17824             -0.00000              0.38695         *
 * O         9      0.00000             -1.17824              0.38695         *
 * O        10      1.39824              1.39824             -1.74074         *
 * O        11     -1.39824              1.39824             -1.74074         *
 * O        12      0.00000              0.00000             -1.29838         *
 * O        13      1.39824             -1.39824             -1.74074         *
 * O        14     -1.39824             -1.39824             -1.74074         *
 * Mg        1     -0.00000              1.77613              2.74776         *
 * Mg        2      1.77613             -0.00000              2.74776         *
 * Mg        3     -1.77613              0.00000              2.74776         *
 * Mg        4      0.00000             -1.77613              2.74776         *
 * Mg        5      0.00000              0.00000             -0.18860         *
 * Ca        1      3.46554              3.46554             -0.10420         *
 * Ca        2     -3.46554              3.46554             -0.10420         *
 * Ca        3      3.46554             -3.46554             -0.10420         *
 * Ca        4     -3.46554             -3.46554             -0.10420         *
 * Ca        5      0.00000              3.25472             -2.55088         *
 * Ca        6      3.25472             -0.00000             -2.55088         *
 * Ca        7     -3.25472              0.00000             -2.55088         *
 * Ca        8      0.00000             -3.25472             -2.55088         *
 *                                                                            *
 ******************************************************************************

 ***************** Stress Tensor *****************
 *                                               *
 *          Cartesian components (GPa)           *
 * --------------------------------------------- *
 *             x             y             z     *
 *                                               *
 *  x     15.357260      0.000000      0.000000  *
 *  y      0.000000     15.357260      0.000000  *
 *  z      0.000000      0.000000     15.707914  *
 *                                               *
 *  Pressure:  -15.4741                          *
 *                                               *
 *************************************************

 *********** Constrained Stress Tensor ***********
 *                                               *
 *          Cartesian components (GPa)           *
 * --------------------------------------------- *
 *             x             y             z     *
 *                                               *
 *  x     15.795141      0.000000      0.000000  *
 *  y      0.000000     15.795141      0.000000  *
 *  z      0.000000      0.000000     15.795141  *
 *                                               *
 *  Pressure:  -15.7951                          *
 *                                               *
 *************************************************
  
 +------------+-------------+-------------+-----------------+ <-- min BFGS
 |    Step    |   lambda    |   F.delta   |    enthalpy     | <-- min BFGS
 +------------+-------------+-------------+-----------------+ <-- min BFGS
 |  previous  |    0.000000 |    0.100067 |   -19297.993215 | <-- min BFGS
 | trial step |    1.000000 |    0.100131 |   -19300.769942 | <-- min BFGS
 +------------+-------------+-------------+-----------------+ <-- min BFGS
  
 BFGS: finished iteration     1 with enthalpy= -1.93007699E+004 eV
  
 +-----------+-----------------+-----------------+------------+-----+ <-- BFGS
 | Parameter |      value      |    tolerance    |    units   | OK? | <-- BFGS
 +-----------+-----------------+-----------------+------------+-----+ <-- BFGS
 |  dE/ion   |   1.028417E-001 |   2.000000E-005 |         eV | No  | <-- BFGS
 |  |F|max   |   4.902126E+000 |   5.000000E-002 |       eV/A | No  | <-- BFGS
 |  |dR|max  |   1.924610E-002 |   1.000000E-003 |          A | No  | <-- BFGS
 |   Smax    |   1.547419E+001 |   1.000000E-001 |        GPa | No  | <-- BFGS
 +-----------+-----------------+-----------------+------------+-----+ <-- BFGS
  

================================================================================
 Starting BFGS iteration          2 ...
================================================================================
  
 +------------+-------------+-------------+-----------------+ <-- min BFGS
 |    Step    |   lambda    |   F.delta   |    enthalpy     | <-- min BFGS
 +------------+-------------+-------------+-----------------+ <-- min BFGS
 |  previous  |    0.000000 |    0.100208 |   -19300.769942 | <-- min BFGS
 +------------+-------------+-------------+-----------------+ <-- min BFGS
  

--------------------------------------------------------------------------------
 BFGS: starting iteration         2 with trial guess (lambda=  1.000000)
--------------------------------------------------------------------------------

                           -------------------------------
                                      Unit Cell
                           -------------------------------
        Real Lattice(A)              Reciprocal Lattice(1/A)
   8.2302755   0.0000000   0.0000000        0.7634234   0.0000000   0.0000000
   0.0000000   8.2302755   0.0000000        0.0000000   0.7634234   0.0000000
   0.0000000   0.0000000   8.2302755        0.0000000   0.0000000   0.7634234

                       Lattice parameters(A)       Cell Angles
                    a =    8.230276          alpha =   90.000000
                    b =    8.230276          beta  =   90.000000
                    c =    8.230276          gamma =   90.000000

                Current cell volume =  557.497754 A**3

                           -------------------------------
                                     Cell Contents
                           -------------------------------

            xxxxxxxxxxxxxxxxxxxxxxxxxxxxxxxxxxxxxxxxxxxxxxxxxxxxxxxxxxxx
            x  Element    Atom        Fractional coordinates of atoms  x
            x            Number           u          v          w      x
            x----------------------------------------------------------x
            x  O            1         0.001151   0.001151   0.001275   x
            x  O            2         0.665515   0.001151   0.001275   x
            x  O            3         0.333333   0.333333   0.000951   x
            x  O            4         0.001151   0.665515   0.001275   x
            x  O            5         0.665515   0.665515   0.001275   x
            x  O            6         0.333333   0.001070   0.333701   x
            x  O            7         0.001070   0.333333   0.333701   x
            x  O            8         0.665596   0.333333   0.333701   x
            x  O            9         0.333333   0.665596   0.333701   x
            x  O           10         0.001296   0.001296   0.665057   x
            x  O           11         0.665370   0.001296   0.665057   x
            x  O           12         0.333333   0.333333   0.665480   x
            x  O           13         0.001296   0.665370   0.665057   x
            x  O           14         0.665370   0.665370   0.665057   x
            x  Mg           1         0.333333   0.001622   0.002556   x
            x  Mg           2         0.001622   0.333333   0.002556   x
            x  Mg           3         0.665044   0.333333   0.002556   x
            x  Mg           4         0.333333   0.665044   0.002556   x
            x  Mg           5         0.333333   0.333333   0.333165   x
            x  Ca           1         0.003255   0.003255   0.333238   x
            x  Ca           2         0.663412   0.003255   0.333238   x
            x  Ca           3         0.003255   0.663412   0.333238   x
            x  Ca           4         0.663412   0.663412   0.333238   x
            x  Ca           5         0.333333   0.003070   0.664275   x
            x  Ca           6         0.003070   0.333333   0.664275   x
            x  Ca           7         0.663597   0.333333   0.664275   x
            x  Ca           8         0.333333   0.663597   0.664275   x
            xxxxxxxxxxxxxxxxxxxxxxxxxxxxxxxxxxxxxxxxxxxxxxxxxxxxxxxxxxxx


------------------------------------------------------------------------ <-- SCF
SCF loop      Energy           Fermi           Energy gain       Timer   <-- SCF
                               energy          per atom          (sec)   <-- SCF
------------------------------------------------------------------------ <-- SCF
Initial  -1.92957238E+004  0.00000000E+000                      3938.87  <-- SCF
      1  -1.93121773E+004  2.71169425E+000   6.09388202E-001    3983.71  <-- SCF
      2  -1.93125282E+004  2.70718671E+000   1.29959715E-002    4049.94  <-- SCF
      3  -1.93169604E+004  1.10468061E+000   1.64154810E-001    4102.96  <-- SCF
      4  -1.93079850E+004  2.42467542E+000  -3.32421176E-001    4155.44  <-- SCF
      5  -1.93055969E+004  2.08493082E+000  -8.84486408E-002    4208.85  <-- SCF
      6  -1.93040776E+004  1.95970735E+000  -5.62691900E-002    4264.60  <-- SCF
      7  -1.93036210E+004  1.81337811E+000  -1.69115336E-002    4316.92  <-- SCF
      8  -1.93035927E+004  1.79587898E+000  -1.04818635E-003    4373.18  <-- SCF
      9  -1.93035386E+004  1.73134767E+000  -2.00367543E-003    4425.93  <-- SCF
     10  -1.93035431E+004  1.73462486E+000   1.64654792E-004    4478.54  <-- SCF
     11  -1.93035335E+004  1.73301803E+000  -3.55100132E-004    4528.78  <-- SCF
     12  -1.93035330E+004  1.73419207E+000  -1.95676786E-005    4581.09  <-- SCF
     13  -1.93035329E+004  1.73399266E+000  -3.88389804E-006    4630.17  <-- SCF
     14  -1.93035328E+004  1.73400127E+000  -2.09485321E-006    4676.96  <-- SCF
     15  -1.93035328E+004  1.73320244E+000   6.04660907E-007    4722.35  <-- SCF
     16  -1.93035328E+004  1.73351311E+000  -1.03587737E-006    4760.26  <-- SCF
     17  -1.93035328E+004  1.73360635E+000   8.02040583E-008    4795.00  <-- SCF
     18  -1.93035328E+004  1.73367219E+000  -3.06355712E-009    4829.41  <-- SCF
------------------------------------------------------------------------ <-- SCF
 
Final energy, E             =  -19302.87602464     eV
Final free energy (E-TS)    =  -19303.53279067     eV
(energies not corrected for finite basis set)
 
NB est. 0K energy (E-0.5TS)      =  -19303.20440765     eV
 

 *********************************** Forces ***********************************
 *                                                                            *
 *                        Cartesian components (eV/A)                         *
 * -------------------------------------------------------------------------- *
 *                   x                    y                    z              *
 *                                                                            *
 * O         1      1.30596              1.30596              1.39835         *
 * O         2     -1.30596              1.30596              1.39835         *
 * O         3      0.00000              0.00000              1.09080         *
 * O         4      1.30596             -1.30596              1.39835         *
 * O         5     -1.30596             -1.30596              1.39835         *
 * O         6      0.00000              1.24969              0.37535         *
 * O         7      1.24969              0.00000              0.37535         *
 * O         8     -1.24969              0.00000              0.37535         *
 * O         9      0.00000             -1.24969              0.37535         *
 * O        10      1.42987              1.42987             -1.79021         *
 * O        11     -1.42987              1.42987             -1.79021         *
 * O        12      0.00000              0.00000             -1.36144         *
 * O        13      1.42987             -1.42987             -1.79021         *
 * O        14     -1.42987             -1.42987             -1.79021         *
 * Mg        1      0.00000              1.87334              2.79463         *
 * Mg        2      1.87334              0.00000              2.79463         *
 * Mg        3     -1.87334              0.00000              2.79463         *
 * Mg        4      0.00000             -1.87334              2.79463         *
 * Mg        5      0.00000              0.00000             -0.20821         *
 * Ca        1      3.45864              3.45864             -0.10896         *
 * Ca        2     -3.45864              3.45864             -0.10896         *
 * Ca        3      3.45864             -3.45864             -0.10896         *
 * Ca        4     -3.45864             -3.45864             -0.10896         *
 * Ca        5     -0.00000              3.21942             -2.54946         *
 * Ca        6      3.21942              0.00000             -2.54946         *
 * Ca        7     -3.21942              0.00000             -2.54946         *
 * Ca        8      0.00000             -3.21942             -2.54946         *
 *                                                                            *
 ******************************************************************************

 ***************** Stress Tensor *****************
 *                                               *
 *          Cartesian components (GPa)           *
 * --------------------------------------------- *
 *             x             y             z     *
 *                                               *
 *  x     15.671440      0.000000      0.000000  *
 *  y      0.000000     15.671440      0.000000  *
 *  z      0.000000      0.000000     15.920234  *
 *                                               *
 *  Pressure:  -15.7544                          *
 *                                               *
 *************************************************

 *********** Constrained Stress Tensor ***********
 *                                               *
 *          Cartesian components (GPa)           *
 * --------------------------------------------- *
 *             x             y             z     *
 *                                               *
 *  x     16.083717      0.000000      0.000000  *
 *  y      0.000000     16.083717      0.000000  *
 *  z      0.000000      0.000000     16.083717  *
 *                                               *
 *  Pressure:  -16.0837                          *
 *                                               *
 *************************************************
  
 +------------+-------------+-------------+-----------------+ <-- min BFGS
 |    Step    |   lambda    |   F.delta   |    enthalpy     | <-- min BFGS
 +------------+-------------+-------------+-----------------+ <-- min BFGS
 |  previous  |    0.000000 |    0.100208 |   -19300.769942 | <-- min BFGS
 | trial step |    1.000000 |    0.099997 |   -19303.548963 | <-- min BFGS
 +------------+-------------+-------------+-----------------+ <-- min BFGS
  
 BFGS: finished iteration     2 with enthalpy= -1.93035490E+004 eV
  
 +-----------+-----------------+-----------------+------------+-----+ <-- BFGS
 | Parameter |      value      |    tolerance    |    units   | OK? | <-- BFGS
 +-----------+-----------------+-----------------+------------+-----+ <-- BFGS
 |  dE/ion   |   1.029267E-001 |   2.000000E-005 |         eV | No  | <-- BFGS
 |  |F|max   |   4.892474E+000 |   5.000000E-002 |       eV/A | No  | <-- BFGS
 |  |dR|max  |   1.883961E-002 |   1.000000E-003 |          A | No  | <-- BFGS
 |   Smax    |   1.575439E+001 |   1.000000E-001 |        GPa | No  | <-- BFGS
 +-----------+-----------------+-----------------+------------+-----+ <-- BFGS
  

================================================================================
 Starting BFGS iteration          3 ...
================================================================================
  
 +------------+-------------+-------------+-----------------+ <-- min BFGS
 |    Step    |   lambda    |   F.delta   |    enthalpy     | <-- min BFGS
 +------------+-------------+-------------+-----------------+ <-- min BFGS
 |  previous  |    0.000000 |    0.099801 |   -19303.548963 | <-- min BFGS
 +------------+-------------+-------------+-----------------+ <-- min BFGS
  

--------------------------------------------------------------------------------
 BFGS: starting iteration         3 with trial guess (lambda=  1.000000)
--------------------------------------------------------------------------------

                           -------------------------------
                                      Unit Cell
                           -------------------------------
        Real Lattice(A)              Reciprocal Lattice(1/A)
   8.1455801   0.0000000   0.0000000        0.7713613   0.0000000   0.0000000
   0.0000000   8.1455801   0.0000000        0.0000000   0.7713613   0.0000000
   0.0000000   0.0000000   8.1455801        0.0000000   0.0000000   0.7713613

                       Lattice parameters(A)       Cell Angles
                    a =    8.145580          alpha =   90.000000
                    b =    8.145580          beta  =   90.000000
                    c =    8.145580          gamma =   90.000000

                Current cell volume =  540.463111 A**3

                           -------------------------------
                                     Cell Contents
                           -------------------------------

            xxxxxxxxxxxxxxxxxxxxxxxxxxxxxxxxxxxxxxxxxxxxxxxxxxxxxxxxxxxx
            x  Element    Atom        Fractional coordinates of atoms  x
            x            Number           u          v          w      x
            x----------------------------------------------------------x
            x  O            1         0.001755   0.001755   0.001921   x
            x  O            2         0.664912   0.001755   0.001921   x
            x  O            3         0.333333   0.333333   0.001456   x
            x  O            4         0.001755   0.664912   0.001921   x
            x  O            5         0.664912   0.664912   0.001921   x
            x  O            6         0.333333   0.001648   0.333874   x
            x  O            7         0.001648   0.333333   0.333874   x
            x  O            8         0.665019   0.333333   0.333874   x
            x  O            9         0.333333   0.665019   0.333874   x
            x  O           10         0.001957   0.001957   0.664229   x
            x  O           11         0.664709   0.001957   0.664229   x
            x  O           12         0.333333   0.333333   0.664850   x
            x  O           13         0.001957   0.664709   0.664229   x
            x  O           14         0.664709   0.664709   0.664229   x
            x  Mg           1         0.333333   0.002488   0.003848   x
            x  Mg           2         0.002488   0.333333   0.003848   x
            x  Mg           3         0.664179   0.333333   0.003848   x
            x  Mg           4         0.333333   0.664179   0.003848   x
            x  Mg           5         0.333333   0.333333   0.333068   x
            x  Ca           1         0.004853   0.004853   0.333187   x
            x  Ca           2         0.661814   0.004853   0.333187   x
            x  Ca           3         0.004853   0.661814   0.333187   x
            x  Ca           4         0.661814   0.661814   0.333187   x
            x  Ca           5         0.333333   0.004558   0.663097   x
            x  Ca           6         0.004558   0.333333   0.663097   x
            x  Ca           7         0.662109   0.333333   0.663097   x
            x  Ca           8         0.333333   0.662109   0.663097   x
            xxxxxxxxxxxxxxxxxxxxxxxxxxxxxxxxxxxxxxxxxxxxxxxxxxxxxxxxxxxx


------------------------------------------------------------------------ <-- SCF
SCF loop      Energy           Fermi           Energy gain       Timer   <-- SCF
                               energy          per atom          (sec)   <-- SCF
------------------------------------------------------------------------ <-- SCF
Initial  -1.92986472E+004  0.00000000E+000                      5018.63  <-- SCF
      1  -1.93147069E+004  2.91347762E+000   5.94805163E-001    5061.70  <-- SCF
      2  -1.93150522E+004  2.90883261E+000   1.27870416E-002    5125.47  <-- SCF
      3  -1.93190438E+004  1.22314166E+000   1.47835538E-001    5176.71  <-- SCF
      4  -1.93103820E+004  2.61775283E+000  -3.20807125E-001    5229.09  <-- SCF
      5  -1.93082171E+004  2.28209378E+000  -8.01809694E-002    5283.39  <-- SCF
      6  -1.93068683E+004  2.15891554E+000  -4.99565600E-002    5338.27  <-- SCF
      7  -1.93064114E+004  2.02592504E+000  -1.69190544E-002    5390.64  <-- SCF
      8  -1.93063785E+004  1.97774975E+000  -1.21986205E-003    5446.04  <-- SCF
      9  -1.93063477E+004  1.93606723E+000  -1.14226777E-003    5497.89  <-- SCF
     10  -1.93063269E+004  1.93169622E+000  -7.70344464E-004    5547.98  <-- SCF
     11  -1.93063260E+004  1.93116519E+000  -3.12717670E-005    5600.76  <-- SCF
     12  -1.93063245E+004  1.93328022E+000  -5.43086802E-005    5651.75  <-- SCF
     13  -1.93063243E+004  1.93182888E+000  -8.53353102E-006    5698.90  <-- SCF
     14  -1.93063242E+004  1.93178710E+000  -3.74085164E-006    5744.63  <-- SCF
     15  -1.93063242E+004  1.93218480E+000  -1.74159980E-007    5787.48  <-- SCF
     16  -1.93063242E+004  1.93192510E+000  -1.97736812E-008    5823.40  <-- SCF
     17  -1.93063242E+004  1.93202303E+000  -4.93945594E-008    5858.02  <-- SCF
------------------------------------------------------------------------ <-- SCF
 
Final energy, E             =  -19305.71784485     eV
Final free energy (E-TS)    =  -19306.32421163     eV
(energies not corrected for finite basis set)
 
NB est. 0K energy (E-0.5TS)      =  -19306.02102824     eV
 

 *********************************** Forces ***********************************
 *                                                                            *
 *                        Cartesian components (eV/A)                         *
 * -------------------------------------------------------------------------- *
 *                   x                    y                    z              *
 *                                                                            *
 * O         1      1.36132              1.36132              1.42532         *
 * O         2     -1.36132              1.36132              1.42532         *
 * O         3      0.00000              0.00000              1.14074         *
 * O         4      1.36132             -1.36132              1.42532         *
 * O         5     -1.36132             -1.36132              1.42532         *
 * O         6      0.00000              1.31820              0.35975         *
 * O         7      1.31820              0.00000              0.35975         *
 * O         8     -1.31820             -0.00000              0.35975         *
 * O         9      0.00000             -1.31820              0.35975         *
 * O        10      1.46487              1.46487             -1.84198         *
 * O        11     -1.46487              1.46487             -1.84198         *
 * O        12      0.00000              0.00000             -1.42503         *
 * O        13      1.46487             -1.46487             -1.84198         *
 * O        14     -1.46487             -1.46487             -1.84198         *
 * Mg        1      0.00000              1.97014              2.83753         *
 * Mg        2      1.97014             -0.00000              2.83753         *
 * Mg        3     -1.97014              0.00000              2.83753         *
 * Mg        4     -0.00000             -1.97014              2.83753         *
 * Mg        5      0.00000              0.00000             -0.22920         *
 * Ca        1      3.44538              3.44538             -0.11405         *
 * Ca        2     -3.44538              3.44538             -0.11405         *
 * Ca        3      3.44538             -3.44538             -0.11405         *
 * Ca        4     -3.44538             -3.44538             -0.11405         *
 * Ca        5     -0.00000              3.17781             -2.53819         *
 * Ca        6      3.17781              0.00000             -2.53819         *
 * Ca        7     -3.17781              0.00000             -2.53819         *
 * Ca        8      0.00000             -3.17781             -2.53819         *
 *                                                                            *
 ******************************************************************************

 ***************** Stress Tensor *****************
 *                                               *
 *          Cartesian components (GPa)           *
 * --------------------------------------------- *
 *             x             y             z     *
 *                                               *
 *  x     15.854797      0.000000      0.000000  *
 *  y      0.000000     15.854797      0.000000  *
 *  z      0.000000      0.000000     15.999208  *
 *                                               *
 *  Pressure:  -15.9029                          *
 *                                               *
 *************************************************

 *********** Constrained Stress Tensor ***********
 *                                               *
 *          Cartesian components (GPa)           *
 * --------------------------------------------- *
 *             x             y             z     *
 *                                               *
 *  x     16.235046      0.000000      0.000000  *
 *  y      0.000000     16.235046      0.000000  *
 *  z      0.000000      0.000000     16.235046  *
 *                                               *
 *  Pressure:  -16.2350                          *
 *                                               *
 *************************************************
  
 +------------+-------------+-------------+-----------------+ <-- min BFGS
 |    Step    |   lambda    |   F.delta   |    enthalpy     | <-- min BFGS
 +------------+-------------+-------------+-----------------+ <-- min BFGS
 |  previous  |    0.000000 |    0.099801 |   -19303.548963 | <-- min BFGS
 | trial step |    1.000000 |    0.099013 |   -19306.304397 | <-- min BFGS
 +------------+-------------+-------------+-----------------+ <-- min BFGS
  
 BFGS: finished iteration     3 with enthalpy= -1.93063044E+004 eV
  
 +-----------+-----------------+-----------------+------------+-----+ <-- BFGS
 | Parameter |      value      |    tolerance    |    units   | OK? | <-- BFGS
 +-----------+-----------------+-----------------+------------+-----+ <-- BFGS
 |  dE/ion   |   1.020531E-001 |   2.000000E-005 |         eV | No  | <-- BFGS
 |  |F|max   |   4.873840E+000 |   5.000000E-002 |       eV/A | No  | <-- BFGS
 |  |dR|max  |   1.841899E-002 |   1.000000E-003 |          A | No  | <-- BFGS
 |   Smax    |   1.590294E+001 |   1.000000E-001 |        GPa | No  | <-- BFGS
 +-----------+-----------------+-----------------+------------+-----+ <-- BFGS
  

================================================================================
 Starting BFGS iteration          4 ...
================================================================================
  
 +------------+-------------+-------------+-----------------+ <-- min BFGS
 |    Step    |   lambda    |   F.delta   |    enthalpy     | <-- min BFGS
 +------------+-------------+-------------+-----------------+ <-- min BFGS
 |  previous  |    0.000000 |    0.098248 |   -19306.304397 | <-- min BFGS
 +------------+-------------+-------------+-----------------+ <-- min BFGS
  

--------------------------------------------------------------------------------
 BFGS: starting iteration         4 with trial guess (lambda=  1.000000)
--------------------------------------------------------------------------------

                           -------------------------------
                                      Unit Cell
                           -------------------------------
        Real Lattice(A)              Reciprocal Lattice(1/A)
   8.0618366   0.0000000   0.0000000        0.7793739   0.0000000   0.0000000
   0.0000000   8.0618366   0.0000000        0.0000000   0.7793739   0.0000000
   0.0000000   0.0000000   8.0618366        0.0000000   0.0000000   0.7793739

                       Lattice parameters(A)       Cell Angles
                    a =    8.061837          alpha =   90.000000
                    b =    8.061837          beta  =   90.000000
                    c =    8.061837          gamma =   90.000000

                Current cell volume =  523.964641 A**3

                           -------------------------------
                                     Cell Contents
                           -------------------------------

            xxxxxxxxxxxxxxxxxxxxxxxxxxxxxxxxxxxxxxxxxxxxxxxxxxxxxxxxxxxx
            x  Element    Atom        Fractional coordinates of atoms  x
            x            Number           u          v          w      x
            x----------------------------------------------------------x
            x  O            1         0.002378   0.002378   0.002573   x
            x  O            2         0.664289   0.002378   0.002573   x
            x  O            3         0.333333   0.333333   0.001977   x
            x  O            4         0.002378   0.664289   0.002573   x
            x  O            5         0.664289   0.664289   0.002573   x
            x  O            6         0.333333   0.002251   0.334039   x
            x  O            7         0.002251   0.333333   0.334039   x
            x  O            8         0.664416   0.333333   0.334039   x
            x  O            9         0.333333   0.664416   0.334039   x
            x  O           10         0.002627   0.002627   0.663387   x
            x  O           11         0.664039   0.002627   0.663387   x
            x  O           12         0.333333   0.333333   0.664198   x
            x  O           13         0.002627   0.664039   0.663387   x
            x  O           14         0.664039   0.664039   0.663387   x
            x  Mg           1         0.333333   0.003389   0.005146   x
            x  Mg           2         0.003389   0.333333   0.005146   x
            x  Mg           3         0.663277   0.333333   0.005146   x
            x  Mg           4         0.333333   0.663277   0.005146   x
            x  Mg           5         0.333333   0.333333   0.332964   x
            x  Ca           1         0.006429   0.006429   0.333135   x
            x  Ca           2         0.660238   0.006429   0.333135   x
            x  Ca           3         0.006429   0.660238   0.333135   x
            x  Ca           4         0.660238   0.660238   0.333135   x
            x  Ca           5         0.333333   0.006012   0.661936   x
            x  Ca           6         0.006012   0.333333   0.661936   x
            x  Ca           7         0.660655   0.333333   0.661936   x
            x  Ca           8         0.333333   0.660655   0.661936   x
            xxxxxxxxxxxxxxxxxxxxxxxxxxxxxxxxxxxxxxxxxxxxxxxxxxxxxxxxxxxx


------------------------------------------------------------------------ <-- SCF
SCF loop      Energy           Fermi           Energy gain       Timer   <-- SCF
                               energy          per atom          (sec)   <-- SCF
------------------------------------------------------------------------ <-- SCF
Initial  -1.93015706E+004  0.00000000E+000                      6047.86  <-- SCF
      1  -1.93171196E+004  3.11370416E+000   5.75886770E-001    6091.20  <-- SCF
      2  -1.93174513E+004  3.10909285E+000   1.22844384E-002    6154.17  <-- SCF
      3  -1.93209397E+004  1.34599659E+000   1.29201028E-001    6204.41  <-- SCF
      4  -1.93127848E+004  2.81714929E+000  -3.02031411E-001    6254.86  <-- SCF
      5  -1.93108185E+004  2.48579350E+000  -7.28274649E-002    6306.80  <-- SCF
      6  -1.93095941E+004  2.36930646E+000  -4.53472890E-002    6360.16  <-- SCF
      7  -1.93091519E+004  2.24767464E+000  -1.63778054E-002    6413.27  <-- SCF
      8  -1.93090845E+004  2.18194708E+000  -2.49636402E-003    6469.89  <-- SCF
      9  -1.93090829E+004  2.14477894E+000  -6.14318268E-005    6521.91  <-- SCF
     10  -1.93090614E+004  2.13361152E+000  -7.95881523E-004    6572.40  <-- SCF
     11  -1.93090556E+004  2.13844281E+000  -2.14587102E-004    6623.04  <-- SCF
     12  -1.93090553E+004  2.13963166E+000  -8.30209554E-006    6672.44  <-- SCF
     13  -1.93090550E+004  2.13641701E+000  -1.11268128E-005    6721.92  <-- SCF
     14  -1.93090550E+004  2.13733736E+000  -2.96670790E-006    6767.26  <-- SCF
     15  -1.93090549E+004  2.13731893E+000  -8.76130474E-007    6810.22  <-- SCF
     16  -1.93090549E+004  2.13714464E+000   5.24834380E-008    6844.48  <-- SCF
     17  -1.93090549E+004  2.13718957E+000  -1.89379573E-008    6878.21  <-- SCF
------------------------------------------------------------------------ <-- SCF
 
Final energy, E             =  -19308.49719621     eV
Final free energy (E-TS)    =  -19309.05494126     eV
(energies not corrected for finite basis set)
 
NB est. 0K energy (E-0.5TS)      =  -19308.77606873     eV
 

 *********************************** Forces ***********************************
 *                                                                            *
 *                        Cartesian components (eV/A)                         *
 * -------------------------------------------------------------------------- *
 *                   x                    y                    z              *
 *                                                                            *
 * O         1      1.42056              1.42056              1.44483         *
 * O         2     -1.42056              1.42056              1.44483         *
 * O         3      0.00000              0.00000              1.19681         *
 * O         4      1.42056             -1.42056              1.44483         *
 * O         5     -1.42056             -1.42056              1.44483         *
 * O         6     -0.00000              1.38966              0.34016         *
 * O         7      1.38966              0.00000              0.34016         *
 * O         8     -1.38966             -0.00000              0.34016         *
 * O         9      0.00000             -1.38966              0.34016         *
 * O        10      1.49295              1.49295             -1.88689         *
 * O        11     -1.49295              1.49295             -1.88689         *
 * O        12      0.00000              0.00000             -1.49387         *
 * O        13      1.49295             -1.49295             -1.88689         *
 * O        14     -1.49295             -1.49295             -1.88689         *
 * Mg        1      0.00000              2.06419              2.87399         *
 * Mg        2      2.06419              0.00000              2.87399         *
 * Mg        3     -2.06419              0.00000              2.87399         *
 * Mg        4      0.00000             -2.06419              2.87399         *
 * Mg        5      0.00000              0.00000             -0.25261         *
 * Ca        1      3.42292              3.42292             -0.11986         *
 * Ca        2     -3.42292              3.42292             -0.11986         *
 * Ca        3      3.42292             -3.42292             -0.11986         *
 * Ca        4     -3.42292             -3.42292             -0.11986         *
 * Ca        5      0.00000              3.12790             -2.51480         *
 * Ca        6      3.12790              0.00000             -2.51480         *
 * Ca        7     -3.12790             -0.00000             -2.51480         *
 * Ca        8     -0.00000             -3.12790             -2.51480         *
 *                                                                            *
 ******************************************************************************

 ***************** Stress Tensor *****************
 *                                               *
 *          Cartesian components (GPa)           *
 * --------------------------------------------- *
 *             x             y             z     *
 *                                               *
 *  x     15.974839      0.000000      0.000000  *
 *  y      0.000000     15.974839      0.000000  *
 *  z      0.000000      0.000000     16.019485  *
 *                                               *
 *  Pressure:  -15.9897                          *
[...]
 *                        Cartesian components (eV/A)                         *
 * -------------------------------------------------------------------------- *
 *                   x                    y                    z              *
 *                                                                            *
 * O         1      2.09246              2.09246              0.81601         *
 * O         2     -2.09246              2.09246              0.81601         *
 * O         3      0.00000              0.00000              1.29893         *
 * O         4      2.09246             -2.09246              0.81601         *
 * O         5     -2.09246             -2.09246              0.81601         *
 * O         6     -0.00000              1.40542             -0.44303         *
 * O         7      1.40542              0.00000             -0.44303         *
 * O         8     -1.40542             -0.00000             -0.44303         *
 * O         9      0.00000             -1.40542             -0.44303         *
 * O        10      1.28390              1.28390             -1.55100         *
 * O        11     -1.28390              1.28390             -1.55100         *
 * O        12      0.00000              0.00000             -1.62771         *
 * O        13      1.28390             -1.28390             -1.55100         *
 * O        14     -1.28390             -1.28390             -1.55100         *
 * Mg        1      0.00000              2.01639              1.84586         *
 * Mg        2      2.01639              0.00000              1.84586         *
 * Mg        3     -2.01639              0.00000              1.84586         *
 * Mg        4     -0.00000             -2.01639              1.84586         *
 * Mg        5      0.00000              0.00000             -0.15762         *
 * Ca        1      0.62868              0.62868             -0.20936         *
 * Ca        2     -0.62868              0.62868             -0.20936         *
 * Ca        3      0.62868             -0.62868             -0.20936         *
 * Ca        4     -0.62868             -0.62868             -0.20936         *
 * Ca        5      0.00000              0.60684             -0.33689         *
 * Ca        6      0.60684              0.00000             -0.33689         *
 * Ca        7     -0.60684              0.00000             -0.33689         *
 * Ca        8      0.00000             -0.60684             -0.33689         *
 *                                                                            *
 ******************************************************************************

 ***************** Stress Tensor *****************
 *                                               *
 *          Cartesian components (GPa)           *
 * --------------------------------------------- *
 *             x             y             z     *
 *                                               *
 *  x      0.506952      0.000000      0.000000  *
 *  y      0.000000      0.506952      0.000000  *
 *  z      0.000000      0.000000     -1.843419  *
 *                                               *
 *  Pressure:    0.2765                          *
 *                                               *
 *************************************************

 *********** Constrained Stress Tensor ***********
 *                                               *
 *          Cartesian components (GPa)           *
 * --------------------------------------------- *
 *             x             y             z     *
 *                                               *
 *  x     -0.274653      0.000000      0.000000  *
 *  y      0.000000     -0.274653      0.000000  *
 *  z      0.000000      0.000000     -0.274653  *
 *                                               *
 *  Pressure:    0.2747                          *
 *                                               *
 *************************************************
  
 +------------+-------------+-------------+-----------------+ <-- min BFGS
 |    Step    |   lambda    |   F.delta   |    enthalpy     | <-- min BFGS
 +------------+-------------+-------------+-----------------+ <-- min BFGS
 |  previous  |    0.000000 |    0.011781 |   -19338.212935 | <-- min BFGS
 | trial step |    1.000000 |    0.011572 |   -19338.530677 | <-- min BFGS
 +------------+-------------+-------------+-----------------+ <-- min BFGS
  
 BFGS: finished iteration    30 with enthalpy= -1.93385307E+004 eV
  
 +-----------+-----------------+-----------------+------------+-----+ <-- BFGS
 | Parameter |      value      |    tolerance    |    units   | OK? | <-- BFGS
 +-----------+-----------------+-----------------+------------+-----+ <-- BFGS
 |  dE/ion   |   1.176822E-002 |   2.000000E-005 |         eV | No  | <-- BFGS
 |  |F|max   |   3.069634E+000 |   5.000000E-002 |       eV/A | No  | <-- BFGS
 |  |dR|max  |   8.809413E-003 |   1.000000E-003 |          A | No  | <-- BFGS
 |   Smax    |   2.747387E-001 |   1.000000E-001 |        GPa | No  | <-- BFGS
 +-----------+-----------------+-----------------+------------+-----+ <-- BFGS
  
 BFGS : WARNING - Geometry optimization failed to converge after         30 steps

================================================================================
 BFGS : Final Configuration:
================================================================================

                           -------------------------------
                                      Unit Cell
                           -------------------------------
        Real Lattice(A)              Reciprocal Lattice(1/A)
   7.1168902   0.0000000   0.0000000        0.8828555   0.0000000   0.0000000
   0.0000000   7.1168902   0.0000000        0.0000000   0.8828555   0.0000000
   0.0000000   0.0000000   7.1168902        0.0000000   0.0000000   0.8828555

                       Lattice parameters(A)       Cell Angles
                    a =    7.116890          alpha =   90.000000
                    b =    7.116890          beta  =   90.000000
                    c =    7.116890          gamma =   90.000000

                Current cell volume =  360.471382 A**3

                           -------------------------------
                                     Cell Contents
                           -------------------------------

            xxxxxxxxxxxxxxxxxxxxxxxxxxxxxxxxxxxxxxxxxxxxxxxxxxxxxxxxxxxx
            x  Element    Atom        Fractional coordinates of atoms  x
            x            Number           u          v          w      x
            x----------------------------------------------------------x
            x  O            1         0.023763   0.023763   0.016015   x
            x  O            2         0.642904   0.023763   0.016015   x
            x  O            3         0.333333   0.333333   0.017866   x
            x  O            4         0.023763   0.642904   0.016015   x
            x  O            5         0.642904   0.642904   0.016015   x
            x  O            6         0.333333   0.020090   0.332596   x
            x  O            7         0.020090   0.333333   0.332596   x
            x  O            8         0.646577   0.333333   0.332596   x
            x  O            9         0.333333   0.646577   0.332596   x
            x  O           10         0.019396   0.019396   0.642815   x
            x  O           11         0.647271   0.019396   0.642815   x
            x  O           12         0.333333   0.333333   0.644257   x
            x  O           13         0.019396   0.647271   0.642815   x
            x  O           14         0.647271   0.647271   0.642815   x
            x  Mg           1         0.333333   0.028580   0.032504   x
            x  Mg           2         0.028580   0.333333   0.032504   x
            x  Mg           3         0.638087   0.333333   0.032504   x
            x  Mg           4         0.333333   0.638087   0.032504   x
            x  Mg           5         0.333333   0.333333   0.329224   x
            x  Ca           1         0.027873   0.027873   0.330996   x
            x  Ca           2         0.638793   0.027873   0.330996   x
            x  Ca           3         0.027873   0.638793   0.330996   x
            x  Ca           4         0.638793   0.638793   0.330996   x
            x  Ca           5         0.333333   0.025218   0.647238   x
            x  Ca           6         0.025218   0.333333   0.647238   x
            x  Ca           7         0.641449   0.333333   0.647238   x
            x  Ca           8         0.333333   0.641449   0.647238   x
            xxxxxxxxxxxxxxxxxxxxxxxxxxxxxxxxxxxxxxxxxxxxxxxxxxxxxxxxxxxx


 BFGS : Final Enthalpy     = -1.93385307E+004 eV
 BFGS : Final <frequency>  unchanged from initial value
 BFGS : Final bulk modulus unchanged from initial value
  
  **********************************************************
  *** There were at least     1 warnings during this run ***
  *** => please check the whole of this file carefully!  ***
  **********************************************************

 ***************************** Symmetrised Forces *****************************
 *                                                                            *
 *                        Cartesian components (eV/A)                         *
 * -------------------------------------------------------------------------- *
 *                   x                    y                    z              *
 *                                                                            *
 * O         1      2.09246              2.09246              0.81601         *
 * O         2     -2.09246              2.09246              0.81601         *
 * O         3      0.00000              0.00000              1.29893         *
 * O         4      2.09246             -2.09246              0.81601         *
 * O         5     -2.09246             -2.09246              0.81601         *
 * O         6     -0.00000              1.40542             -0.44303         *
 * O         7      1.40542              0.00000             -0.44303         *
 * O         8     -1.40542             -0.00000             -0.44303         *
 * O         9      0.00000             -1.40542             -0.44303         *
 * O        10      1.28390              1.28390             -1.55100         *
 * O        11     -1.28390              1.28390             -1.55100         *
 * O        12      0.00000              0.00000             -1.62771         *
 * O        13      1.28390             -1.28390             -1.55100         *
 * O        14     -1.28390             -1.28390             -1.55100         *
 * Mg        1      0.00000              2.01639              1.84586         *
 * Mg        2      2.01639              0.00000              1.84586         *
 * Mg        3     -2.01639              0.00000              1.84586         *
 * Mg        4     -0.00000             -2.01639              1.84586         *
 * Mg        5      0.00000              0.00000             -0.15762         *
 * Ca        1      0.62868              0.62868             -0.20936         *
 * Ca        2     -0.62868              0.62868             -0.20936         *
 * Ca        3      0.62868             -0.62868             -0.20936         *
 * Ca        4     -0.62868             -0.62868             -0.20936         *
 * Ca        5      0.00000              0.60684             -0.33689         *
 * Ca        6      0.60684              0.00000             -0.33689         *
 * Ca        7     -0.60684              0.00000             -0.33689         *
 * Ca        8      0.00000             -0.60684             -0.33689         *
 *                                                                            *
 ******************************************************************************

 *********** Symmetrised Stress Tensor ***********
 *                                               *
 *          Cartesian components (GPa)           *
 * --------------------------------------------- *
 *             x             y             z     *
 *                                               *
 *  x     -0.274739      0.000000      0.000000  *
 *  y      0.000000     -0.274739      0.000000  *
 *  z      0.000000      0.000000     -0.274739  *
 *                                               *
 *  Pressure:    0.2747                          *
 *                                               *
 *************************************************

 Pseudo atomic calculation performed for O 2s2 2p4

 Converged in 30 iterations to a total energy of -432.5600 eV


 Pseudo atomic calculation performed for Mg 2p6 3s2

 Converged in 23 iterations to a total energy of -1024.6674 eV


 Pseudo atomic calculation performed for Ca 3s2 3p6 4s2

 Converged in 24 iterations to a total energy of -1000.4575 eV

Charge spilling parameter for spin component 1 = 0.32%

     Atomic Populations (Mulliken)
     -----------------------------
Species   Ion     s      p      d      f     Total  Charge (e)
==============================================================
  O        1     1.92   4.80   0.00   0.00   6.72    -0.72
  O        2     1.92   4.80   0.00   0.00   6.72    -0.72
  O        3     1.87   5.06   0.00   0.00   6.94    -0.94
  O        4     1.92   4.80   0.00   0.00   6.72    -0.72
  O        5     1.92   4.80   0.00   0.00   6.72    -0.72
  O        6     1.86   5.01   0.00   0.00   6.87    -0.87
  O        7     1.86   5.01   0.00   0.00   6.87    -0.87
  O        8     1.86   5.01   0.00   0.00   6.87    -0.87
  O        9     1.86   5.01   0.00   0.00   6.87    -0.87
  O       10     1.92   4.79   0.00   0.00   6.70    -0.70
  O       11     1.92   4.79   0.00   0.00   6.70    -0.70
  O       12     1.86   4.99   0.00   0.00   6.84    -0.84
  O       13     1.92   4.79   0.00   0.00   6.70    -0.70
  O       14     1.92   4.79   0.00   0.00   6.70    -0.70
  Mg       1     0.55   6.77   0.00   0.00   7.32     0.68
  Mg       2     0.55   6.77   0.00   0.00   7.32     0.68
  Mg       3     0.55   6.77   0.00   0.00   7.32     0.68
  Mg       4     0.55   6.77   0.00   0.00   7.32     0.68
  Mg       5     0.41   6.81   0.00   0.00   7.23     0.77
  Ca       1     2.22   5.97   0.91   0.00   9.10     0.90
  Ca       2     2.22   5.97   0.91   0.00   9.10     0.90
  Ca       3     2.22   5.97   0.91   0.00   9.10     0.90
  Ca       4     2.22   5.97   0.91   0.00   9.10     0.90
  Ca       5     2.17   5.97   0.89   0.00   9.04     0.96
  Ca       6     2.17   5.97   0.89   0.00   9.04     0.96
  Ca       7     2.17   5.97   0.89   0.00   9.04     0.96
  Ca       8     2.17   5.97   0.89   0.00   9.04     0.96
==============================================================

            Bond              Population      Length (A)
============================================================
         O 9  -- Mg 4              0.27        2.13658
         O 8  -- Mg 3              0.27        2.13658
         O 7  -- Mg 2              0.27        2.13658
         O 6  -- Mg 1              0.27        2.13658
         O 3  -- Mg 2              0.26        2.17140
         O 3  -- Mg 1              0.26        2.17140
         O 3  -- Mg 4              0.26        2.17140
         O 3  -- Mg 3              0.26        2.17140
         O 9  -- Ca 3              0.20        2.17466
         O 8  -- Ca 2              0.20        2.17466
         O 7  -- Ca 1              0.20        2.17466
         O 6  -- Ca 1              0.20        2.17466
         O 9  -- Ca 4              0.20        2.17466
         O 8  -- Ca 4              0.20        2.17466
         O 7  -- Ca 3              0.20        2.17466
         O 6  -- Ca 2              0.20        2.17466
         O 12 -- Ca 6              0.20        2.19292
         O 12 -- Ca 5              0.20        2.19292
         O 12 -- Ca 8              0.20        2.19292
         O 12 -- Ca 7              0.20        2.19292
         O 4  -- Mg 4              0.42        2.20657
         O 2  -- Mg 3              0.42        2.20657
         O 1  -- Mg 2              0.42        2.20657
         O 1  -- Mg 1              0.42        2.20657
         O 5  -- Mg 4              0.42        2.20657
         O 5  -- Mg 3              0.42        2.20657
         O 4  -- Mg 2              0.42        2.20657
         O 2  -- Mg 1              0.42        2.20657
         O 3  -- Mg 5              0.22        2.21590
         O 14 -- Ca 4              0.24        2.22082
         O 13 -- Ca 3              0.24        2.22082
         O 11 -- Ca 2              0.24        2.22082
         O 10 -- Ca 1              0.24        2.22082
         O 7  -- Mg 5              0.22        2.22945
         O 6  -- Mg 5              0.22        2.22945
         O 9  -- Mg 5              0.22        2.22945
         O 8  -- Mg 5              0.22        2.22945
         O 13 -- Ca 8              0.22        2.23486
         O 11 -- Ca 7              0.22        2.23486
         O 10 -- Ca 6              0.22        2.23486
         O 10 -- Ca 5              0.22        2.23486
         O 14 -- Ca 8              0.22        2.23486
         O 14 -- Ca 7              0.22        2.23486
         O 13 -- Ca 6              0.22        2.23486
         O 11 -- Ca 5              0.22        2.23486
         O 9  -- Ca 8              0.23        2.23957
         O 8  -- Ca 7              0.23        2.23957
         O 7  -- Ca 6              0.23        2.23957
         O 6  -- Ca 5              0.23        2.23957
         O 12 -- Mg 5              0.21        2.24206
         O 5  -- Ca 4              0.19        2.24206
         O 4  -- Ca 3              0.19        2.24206
         O 2  -- Ca 2              0.19        2.24206
         O 1  -- Ca 1              0.19        2.24206
         O 13 -- O 14             -0.03        2.64837
         O 11 -- O 14             -0.03        2.64837
         O 10 -- O 13             -0.03        2.64837
         O 10 -- O 11             -0.03        2.64837
         O 5  -- O 14             -0.03        2.65639
         O 4  -- O 13             -0.03        2.65639
         O 2  -- O 11             -0.03        2.65639
         O 1  -- O 10             -0.03        2.65639
         O 7  -- O 8              -0.06        2.65825
         O 6  -- O 9              -0.06        2.65825
         O 3  -- O 12             -0.06        2.65894
         O 4  -- O 5              -0.04        2.71054
         O 2  -- O 5              -0.04        2.71054
         O 1  -- O 4              -0.04        2.71054
         O 1  -- O 2              -0.04        2.71054
         Ca 6 -- Ca 7             -0.22        2.73125
         Ca 5 -- Ca 8             -0.22        2.73125
         Mg 4 -- Ca 8             -0.33        2.74200
         Mg 3 -- Ca 7             -0.33        2.74200
         Mg 2 -- Ca 6             -0.33        2.74200
         Mg 1 -- Ca 5             -0.33        2.74200
         Ca 3 -- Ca 4             -0.24        2.76904
         Ca 2 -- Ca 4             -0.24        2.76904
         Ca 1 -- Ca 3             -0.24        2.76904
         Ca 1 -- Ca 2             -0.24        2.76904
         Mg 2 -- Mg 3             -0.49        2.77909
         Mg 1 -- Mg 4             -0.49        2.77909
============================================================


Writing model to test_4.check

Writing analysis data to test_4.castep_bin
 
 A BibTeX formatted list of references used in this run has been written to 
 test_4.bib
 
Initialisation time =     26.36 s
Calculation time    =  22532.49 s
Finalisation time   =      1.72 s
Total time          =  22560.58 s
Peak Memory Use     = 1294824 kB
  
Overall parallel efficiency rating: Excellent (99%)                             
  
Data was distributed by:-
k-point (2-way); efficiency rating: Ideal (100%)                                
