 +-------------------------------------------------+
 |                                                 |
 |      CCC   AA    SSS  TTTTT  EEEEE  PPPP        |
 |     C     A  A  S       T    E      P   P       |
 |     C     AAAA   SS     T    EEE    PPPP        |
 |     C     A  A     S    T    E      P           |
 |      CCC  A  A  SSS     T    EEEEE  P           |
 |                                                 |
 +-------------------------------------------------+
 |                                                 |
 | Welcome to Academic Release CASTEP version 9.0  |
 | Ab Initio Total Energy Program                  |
 |                                                 |
 | Authors:                                        |
 | M. Segall, M. Probert, C. Pickard, P. Hasnip,   |
 | S. Clark, K. Refson, J. R. Yates, M. Payne      |
 |                                                 |
 | Contributors:                                   |
 | P. Lindan, P. Haynes, J. White, V. Milman,      |
 | N. Govind, M. Gibson, P. Tulip, V. Cocula,      |
 | B. Montanari, D. Quigley, M. Glover,            |
 | L. Bernasconi, A. Perlov, M. Plummer,           |
 | E. McNellis, J. Meyer, J. Gale, D. Jochym       |
 | J. Aarons, B. Walker, R. Gillen, D. Jones       |
 | T. Green, I. J. Bush, C. J. Armstrong,          |
 | E. J. Higgins, M. D. Hodgson                    |
 |                                                 |
 | Copyright (c) 2000 - 2015                       |
 |                                                 |
 |     Distributed under the terms of an           |
 |     Agreement between the United Kingdom        |
 |     Car-Parrinello (UKCP) Consortium,           |
 |     Daresbury Laboratory and Accelrys, Inc.     |
 |                                                 |
 | Please cite                                     |
 |                                                 |
 |     "First principles methods using CASTEP"     |
 |                                                 |
 |         Zeitschrift fuer Kristallographie       |
 |           220(5-6) pp. 567-570 (2005)           |
 |                                                 |
 | S. J. Clark, M. D. Segall, C. J. Pickard,       |
 | P. J. Hasnip, M. J. Probert, K. Refson,         |
 | M. C. Payne                                     |
 |                                                 |
 |       in all publications arising from          |
 |              your use of CASTEP                 |
 |                                                 |
 +-------------------------------------------------+
 
 
 Compiled for linux_x86_64_ifort12 on Fri, 09 Oct 2015 16:14:59 +0100
 from code version 01cdeb6dcbec+  Thu, 01 Oct 2015 17:06:55 +0100
 Compiler: Intel Fortran 12.1.5.339; Optimisation: fast
 MATHLIBS: Intel MKL(11.0.5) (LAPACK version 3.4.1)
 FFT Lib : default
 Fundamental constants values: CODATA 2010
 
 Run started: Wed, 04 May 2016 11:51:17 +0100
 Warning: parameters_read - missing parameters file, using defaults
 
 Atomic calculation performed for O: 1s2 2s2 2p4
 
 Converged in 60 iterations to an ae energy of -2027.926 eV
 
   ============================================================                
   | Pseudopotential Report - Date of generation  4-05-2016   |                
   ------------------------------------------------------------                
   | Element: O Ionic charge:  6.00 Level of theory: LDA      |                
   | Atomic Solver: Koelling-Harmon                           |                
   |                                                          |                
   |               Reference Electronic Structure             |                
   |         Orbital         Occupation         Energy        |                
   |            2s              2.000           -0.873        |                
   |            2p              4.000           -0.338        |                
   |                                                          |                
   |                 Pseudopotential Definition               |                
   |        Beta     l      e      Rc     scheme   norm       |                
   |          1      0   -0.873   1.100     qc      0         |                
   |          2      0    0.250   1.100     qc      0         |                
   |          3      1   -0.338   1.100     qc      0         |                
   |          4      1    0.250   1.100     qc      0         |                
   |         loc     2    0.000   1.100     pn      0         |                
   |                                                          |                
   | Augmentation charge Rinner = 0.769                       |                
   | Partial core correction Rc = 0.769                       |                
   ------------------------------------------------------------                
   | "2|1.1|15|18|20|20:21(qc=7)"                             |                
   ------------------------------------------------------------                
   |      Author: Chris J. Pickard, Cambridge University      |                
   ============================================================                
 
 Atomic calculation performed for Mg: 1s2 2s2 2p6 3s2
 
 Converged in 47 iterations to an ae energy of -5427.407 eV
 
   ============================================================                
   | Pseudopotential Report - Date of generation  4-05-2016   |                
   ------------------------------------------------------------                
   | Element: Mg Ionic charge: 10.00 Level of theory: LDA     |                
   | Atomic Solver: Koelling-Harmon                           |                
   |                                                          |                
   |               Reference Electronic Structure             |                
   |         Orbital         Occupation         Energy        |                
   |            2s              2.000           -2.914        |                
   |            2p              6.000           -1.717        |                
   |            3s              2.000           -0.176        |                
   |                                                          |                
   |                 Pseudopotential Definition               |                
   |        Beta     l      e      Rc     scheme   norm       |                
   |          1      0   -2.914   1.804     qc      0         |                
   |          2      0   -0.176   1.804     qc      0         |                
   |          3      0    0.250   1.804     qc      0         |                
   |          4      1   -1.717   1.804     qc      0         |                
   |          5      1    0.250   1.804     qc      0         |                
   |          6      2    0.000   1.804     qc      0         |                
   |          7      2    0.250   1.804     qc      0         |                
   |         loc     3    0.000   1.804     pn      0         |                
   |                                                          |                
   | Augmentation charge Rinner = 1.261                       |                
   | Partial core correction Rc = 1.261                       |                
   ------------------------------------------------------------                
   | "3|1.8|7|8|9|20U:30:21:32"                               |                
   ------------------------------------------------------------                
   |      Author: Chris J. Pickard, Cambridge University      |                
   ============================================================                
 +-------------------------------------------------+
 |                                                 |
 |      CCC   AA    SSS  TTTTT  EEEEE  PPPP        |
 |     C     A  A  S       T    E      P   P       |
 |     C     AAAA   SS     T    EEE    PPPP        |
 |     C     A  A     S    T    E      P           |
 |      CCC  A  A  SSS     T    EEEEE  P           |
 |                                                 |
 +-------------------------------------------------+
 |                                                 |
 | Welcome to Academic Release CASTEP version 9.0  |
 | Ab Initio Total Energy Program                  |
 |                                                 |
 | Authors:                                        |
 | M. Segall, M. Probert, C. Pickard, P. Hasnip,   |
 | S. Clark, K. Refson, J. R. Yates, M. Payne      |
 |                                                 |
 | Contributors:                                   |
 | P. Lindan, P. Haynes, J. White, V. Milman,      |
 | N. Govind, M. Gibson, P. Tulip, V. Cocula,      |
 | B. Montanari, D. Quigley, M. Glover,            |
 | L. Bernasconi, A. Perlov, M. Plummer,           |
 | E. McNellis, J. Meyer, J. Gale, D. Jochym       |
 | J. Aarons, B. Walker, R. Gillen, D. Jones       |
 | T. Green, I. J. Bush, C. J. Armstrong,          |
 | E. J. Higgins, M. D. Hodgson                    |
 |                                                 |
 | Copyright (c) 2000 - 2015                       |
 |                                                 |
 |     Distributed under the terms of an           |
 |     Agreement between the United Kingdom        |
 |     Car-Parrinello (UKCP) Consortium,           |
 |     Daresbury Laboratory and Accelrys, Inc.     |
 |                                                 |
 | Please cite                                     |
 |                                                 |
 |     "First principles methods using CASTEP"     |
 |                                                 |
 |         Zeitschrift fuer Kristallographie       |
 |           220(5-6) pp. 567-570 (2005)           |
 |                                                 |
 | S. J. Clark, M. D. Segall, C. J. Pickard,       |
 | P. J. Hasnip, M. J. Probert, K. Refson,         |
 | M. C. Payne                                     |
 |                                                 |
 |       in all publications arising from          |
 |              your use of CASTEP                 |
 |                                                 |
 +-------------------------------------------------+
 
 
 Compiled for linux_x86_64_ifort12 on Fri, 09 Oct 2015 16:14:59 +0100
 from code version 01cdeb6dcbec+  Thu, 01 Oct 2015 17:06:55 +0100
 Compiler: Intel Fortran 12.1.5.339; Optimisation: fast
 MATHLIBS: Intel MKL(11.0.5) (LAPACK version 3.4.1)
 FFT Lib : default
 Fundamental constants values: CODATA 2010
 
 Run started: Wed, 04 May 2016 11:53:48 +0100
 Warning: parameters_read - missing parameters file, using defaults
 
 Atomic calculation performed for O: 1s2 2s2 2p4
 
 Converged in 60 iterations to an ae energy of -2027.926 eV
 
   ============================================================                
   | Pseudopotential Report - Date of generation  4-05-2016   |                
   ------------------------------------------------------------                
   | Element: O Ionic charge:  6.00 Level of theory: LDA      |                
   | Atomic Solver: Koelling-Harmon                           |                
   |                                                          |                
   |               Reference Electronic Structure             |                
   |         Orbital         Occupation         Energy        |                
   |            2s              2.000           -0.873        |                
   |            2p              4.000           -0.338        |                
   |                                                          |                
   |                 Pseudopotential Definition               |                
   |        Beta     l      e      Rc     scheme   norm       |                
   |          1      0   -0.873   1.100     qc      0         |                
   |          2      0    0.250   1.100     qc      0         |                
   |          3      1   -0.338   1.100     qc      0         |                
   |          4      1    0.250   1.100     qc      0         |                
   |         loc     2    0.000   1.100     pn      0         |                
   |                                                          |                
   | Augmentation charge Rinner = 0.769                       |                
   | Partial core correction Rc = 0.769                       |                
   ------------------------------------------------------------                
   | "2|1.1|15|18|20|20:21(qc=7)"                             |                
   ------------------------------------------------------------                
   |      Author: Chris J. Pickard, Cambridge University      |                
   ============================================================                
 
 Atomic calculation performed for Mg: 1s2 2s2 2p6 3s2
 
 Converged in 47 iterations to an ae energy of -5427.407 eV
 
