 +-------------------------------------------------+
 |                                                 |
 |      CCC   AA    SSS  TTTTT  EEEEE  PPPP        |
 |     C     A  A  S       T    E      P   P       |
 |     C     AAAA   SS     T    EEE    PPPP        |
 |     C     A  A     S    T    E      P           |
 |      CCC  A  A  SSS     T    EEEEE  P           |
 |                                                 |
 +-------------------------------------------------+
 |                                                 |
 | Welcome to Academic Release CASTEP version 9.0  |
 | Ab Initio Total Energy Program                  |
 |                                                 |
 | Authors:                                        |
 | M. Segall, M. Probert, C. Pickard, P. Hasnip,   |
 | S. Clark, K. Refson, J. R. Yates, M. Payne      |
 |                                                 |
 | Contributors:                                   |
 | P. Lindan, P. Haynes, J. White, V. Milman,      |
 | N. Govind, M. Gibson, P. Tulip, V. Cocula,      |
 | B. Montanari, D. Quigley, M. Glover,            |
 | L. Bernasconi, A. Perlov, M. Plummer,           |
 | E. McNellis, J. Meyer, J. Gale, D. Jochym       |
 | J. Aarons, B. Walker, R. Gillen, D. Jones       |
 | T. Green, I. J. Bush, C. J. Armstrong,          |
 | E. J. Higgins, M. D. Hodgson                    |
 |                                                 |
 | Copyright (c) 2000 - 2015                       |
 |                                                 |
 |     Distributed under the terms of an           |
 |     Agreement between the United Kingdom        |
 |     Car-Parrinello (UKCP) Consortium,           |
 |     Daresbury Laboratory and Accelrys, Inc.     |
 |                                                 |
 | Please cite                                     |
 |                                                 |
 |     "First principles methods using CASTEP"     |
 |                                                 |
 |         Zeitschrift fuer Kristallographie       |
 |           220(5-6) pp. 567-570 (2005)           |
 |                                                 |
 | S. J. Clark, M. D. Segall, C. J. Pickard,       |
 | P. J. Hasnip, M. J. Probert, K. Refson,         |
 | M. C. Payne                                     |
 |                                                 |
 |       in all publications arising from          |
 |              your use of CASTEP                 |
 |                                                 |
 +-------------------------------------------------+
 
 
 Compiled for linux_x86_64_ifort12 on Fri, 09 Oct 2015 16:14:59 +0100
 from code version 01cdeb6dcbec+  Thu, 01 Oct 2015 17:06:55 +0100
 Compiler: Intel Fortran 12.1.5.339; Optimisation: fast
 MATHLIBS: Intel MKL(11.0.5) (LAPACK version 3.4.1)
 FFT Lib : default
 Fundamental constants values: CODATA 2010
 
 Run started: Thu, 21 Apr 2016 12:13:50 +0100
 
 Atomic calculation performed for O: 1s2 2s2 2p4
 
 Converged in 60 iterations to an ae energy of -2027.926 eV
 
   ============================================================                
   | Pseudopotential Report - Date of generation 21-04-2016   |                
   ------------------------------------------------------------                
   | Element: O Ionic charge:  6.00 Level of theory: LDA      |                
   | Atomic Solver: Koelling-Harmon                           |                
   |                                                          |                
   |               Reference Electronic Structure             |                
   |         Orbital         Occupation         Energy        |                
   |            2s              2.000           -0.873        |                
   |            2p              4.000           -0.338        |                
   |                                                          |                
   |                 Pseudopotential Definition               |                
   |        Beta     l      e      Rc     scheme   norm       |                
   |          1      0   -0.873   1.100     qc      0         |                
   |          2      0    0.250   1.100     qc      0         |                
   |          3      1   -0.338   1.100     qc      0         |                
   |          4      1    0.250   1.100     qc      0         |                
   |         loc     2    0.000   1.100     pn      0         |                
   |                                                          |                
   | Augmentation charge Rinner = 0.769                       |                
   | Partial core correction Rc = 0.769                       |                
   ------------------------------------------------------------                
   | "2|1.1|15|18|20|20:21(qc=7)"                             |                
   ------------------------------------------------------------                
   |      Author: Chris J. Pickard, Cambridge University      |                
   ============================================================                
 
 Atomic calculation performed for Ca: 1s2 2s2 2p6 3s2 3p6 4s2
 
 Converged in 44 iterations to an ae energy of -18468.059 eV
 
   ============================================================                
   | Pseudopotential Report - Date of generation 21-04-2016   |                
   ------------------------------------------------------------                
   | Element: Ca Ionic charge: 10.00 Level of theory: LDA     |                
   | Atomic Solver: Koelling-Harmon                           |                
   |                                                          |                
   |               Reference Electronic Structure             |                
   |         Orbital         Occupation         Energy        |                
   |            3s              2.000           -1.721        |                
   |            3p              6.000           -1.028        |                
   |            4s              2.000           -0.142        |                
   |                                                          |                
   |                 Pseudopotential Definition               |                
   |        Beta     l      e      Rc     scheme   norm       |                
   |          1      0   -1.721   2.005     qc      0         |                
   |          2      0   -0.142   2.005     qc      0         |                
   |          3      0    0.250   2.005     qc      0         |                
   |          4      1   -1.028   2.005     qc      0         |                
   |          5      1    0.250   2.005     qc      0         |                
   |          6      2    0.000   2.005     qc      0         |                
   |          7      2    0.250   2.005     qc      0         |                
   |         loc     3    0.000   2.005     pn      0         |                
   |                                                          |                
   | Augmentation charge Rinner = 1.401                       |                
   | Partial core correction Rc = 1.401                       |                
   ------------------------------------------------------------                
   | "3|2.0|7|8|9|30U:40:31:32"                               |                
   ------------------------------------------------------------                
   |      Author: Chris J. Pickard, Cambridge University      |                
   ============================================================                
 
 Pseudo atomic calculation performed for O 2s2 2p4
 
 Converged in 28 iterations to a total energy of -424.4682 eV
 
 
 Pseudo atomic calculation performed for Ca 3s2 3p6 4s2
 
 Converged in 24 iterations to a total energy of -1001.5365 eV
 
 Calculation not parallelised.

 ************************************ Title ************************************
 MgO

 ***************************** General Parameters ******************************
  
 output verbosity                               : normal  (1)
 write checkpoint data to                       : ../cell/Mg0Ca100.check
 type of calculation                            : single point energy
 stress calculation                             : on
 density difference calculation                 : off
 electron localisation func (ELF) calculation   : off
 Hirshfeld analysis                             : off
 unlimited duration calculation
 timing information                             : on
 memory usage estimate                          : on
 write final potential to formatted file        : off
 write final density to formatted file          : off
 write BibTeX reference list                    : on
 write OTFG pseudopotential files               : on
 checkpoint writing                             : both castep_bin and check files
  
 output         length unit                     : A
 output           mass unit                     : amu
 output           time unit                     : ps
 output         charge unit                     : e
 output           spin unit                     : hbar/2
 output         energy unit                     : eV
 output          force unit                     : eV/A
 output       velocity unit                     : A/ps
 output       pressure unit                     : GPa
 output     inv_length unit                     : 1/A
 output      frequency unit                     : cm-1
 output force constant unit                     : eV/A**2
 output         volume unit                     : A**3
 output   IR intensity unit                     : (D/A)**2/amu
 output         dipole unit                     : D
 output         efield unit                     : eV/A/e
 output        entropy unit                     : J/mol/K
  
 wavefunctions paging                           : none
 random number generator seed                   : randomised (121350698)
 data distribution                              : optimal for this architecture
 optimization strategy                          : maximize speed(+++)

 *********************** Exchange-Correlation Parameters ***********************
  
 using functional                               : Local Density Approximation
 relativistic treatment                         : Koelling-Harmon
 DFT+D: Semi-empirical dispersion correction    : off

 ************************* Pseudopotential Parameters **************************
  
 pseudopotential representation                 : reciprocal space
 <beta|phi> representation                      : reciprocal space
 spin-orbit coupling                            : off

 **************************** Basis Set Parameters *****************************
  
 plane wave basis set cut-off                   :   280.0000   eV
 size of standard grid                          :     2.0000
 size of   fine   gmax                          :    17.1454   1/A
 finite basis set correction                    : automatic
 number of sample energies                      :          3
           sample  spacing                      :     5.0000   eV

 **************************** Electronic Parameters ****************************
  
 number of  electrons                           :  64.00    
 net charge of system                           :  0.000    
 treating system as non-spin-polarized
 number of bands                                :         38

 ********************* Electronic Minimization Parameters **********************
  
 Method: Treating system as metallic with density mixing treatment of electrons,
         and number of  SD  steps               :          1
         and number of  CG  steps               :          4
  
 total energy / atom convergence tol.           : 0.1000E-06   eV
 eigen-energy convergence tolerance             : 0.2500E-07   eV
 max force / atom convergence tol.              : ignored
 convergence tolerance window                   :          3   cycles
 max. number of SCF cycles                      :         60
 number of fixed-spin iterations                :         10
 smearing scheme                                : Gaussian
 smearing width                                 : 0.2000       eV
 Fermi energy convergence tolerance             : 0.2721E-13   eV
 periodic dipole correction                     : NONE

 ************************** Density Mixing Parameters **************************
  
 density-mixing scheme                          : Pulay
 max. length of mixing history                  :         30
 charge density mixing amplitude                : 0.8000    
 cut-off energy for mixing                      :  280.0       eV

 *********************** Population Analysis Parameters ************************
  
 Population analysis with cutoff                :  3.000       A

 *******************************************************************************
  
 
                           -------------------------------
                                      Unit Cell
                           -------------------------------
        Real Lattice(A)                      Reciprocal Lattice(1/A)
   4.2000000   0.0000000   0.0000000        1.4959965   0.0000000   0.0000000
   0.0000000   4.2000000   0.0000000        0.0000000   1.4959965   0.0000000
   0.0000000   0.0000000   4.2000000        0.0000000   0.0000000   1.4959965
 
                       Lattice parameters(A)       Cell Angles
                    a =    4.200000          alpha =   90.000000
                    b =    4.200000          beta  =   90.000000
                    c =    4.200000          gamma =   90.000000
 
                       Current cell volume =   74.088000       A**3
 
                           -------------------------------
                                     Cell Contents
                           -------------------------------
                         Total number of ions in cell =    8
                      Total number of species in cell =    2
                        Max number of any one species =    4
 
            xxxxxxxxxxxxxxxxxxxxxxxxxxxxxxxxxxxxxxxxxxxxxxxxxxxxxxxxxxxx
            x  Element    Atom        Fractional coordinates of atoms  x
            x            Number           u          v          w      x
            x----------------------------------------------------------x
            x  O            1         0.500000   0.500000   0.500000   x 
            x  O            2         0.500000   0.000000   0.000000   x 
            x  O            3         0.000000   0.500000   0.000000   x 
            x  O            4         0.000000   0.000000   0.500000   x 
            x  Ca           1         0.000000   0.000000   0.000000   x 
            x  Ca           2         0.000000   0.500000   0.500000   x 
            x  Ca           3         0.500000   0.000000   0.500000   x 
            x  Ca           4         0.500000   0.500000   0.000000   x 
            xxxxxxxxxxxxxxxxxxxxxxxxxxxxxxxxxxxxxxxxxxxxxxxxxxxxxxxxxxxx
 
 
                         No user defined ionic velocities
 
                           -------------------------------
                                   Details of Species
                           -------------------------------
 
                               Mass of species in AMU
                                    O   15.9994000
                                    Ca   40.0780000
 
                          Electric Quadrupole Moment (Barn)
                                    O   -0.0255800 Isotope 17
                                    Ca   -0.0408000 Isotope 43
 
                          Files used for pseudopotentials:
                                    O 2|1.1|15|18|20|20:21(qc=7)
                                    Ca 3|2.0|7|8|9|30U:40:31:32
 
                           -------------------------------
                              k-Points For BZ Sampling
                           -------------------------------
                       MP grid size for SCF calculation is  3  3  3
                            with an offset of   0.000  0.000  0.000
                       Number of kpoints used =             4
 
                           -------------------------------
                               Symmetry and Constraints
                           -------------------------------
 
                      Cell is a supercell containing 4 primitive cells
                      Maximum deviation from symmetry = 0.139888E-14     ANG
 
                      Number of symmetry operations   =         192
                      Number of ionic constraints     =           3
                      Point group of crystal =    32: Oh, m-3m, 4/m -3 2/m
                      Space group of crystal =   225: Fm-3m, -F 4 2 3
 
             Set iprint > 1 for details on symmetry rotations/translations
 
                         Centre of mass is constrained
             Set iprint > 1 for details of linear ionic constraints
 
                         Number of cell constraints= 5
                         Cell constraints are:  1 1 1 0 0 0
 
                         External pressure/stress (GPa)
                          0.00000   0.00000   0.00000
                                    0.00000   0.00000
                                              0.00000
  
+---------------- MEMORY AND SCRATCH DISK ESTIMATES PER PROCESS --------------+
|                                                     Memory          Disk    |
| Baseline code, static data and system overhead      146.0 MB         0.0 MB |
| BLAS internal memory storage                          0.0 MB         0.0 MB |
| Model and support data                               61.7 MB         0.0 MB |
| Electronic energy minimisation requirements           6.8 MB         0.0 MB |
| Force calculation requirements                        1.8 MB         0.0 MB |
| Stress calculation requirements                       2.1 MB         0.0 MB |
|                                               ----------------------------- |
| Approx. total storage required per process          214.4 MB         0.0 MB |
|                                                                             |
| Requirements will fluctuate during execution and may exceed these estimates |
+-----------------------------------------------------------------------------+
Calculating finite basis set correction with  3 cut-off energies.
Calculating total energy with cut-off of  270.000eV.
------------------------------------------------------------------------ <-- SCF
SCF loop      Energy           Fermi           Energy gain       Timer   <-- SCF
                               energy          per atom          (sec)   <-- SCF
------------------------------------------------------------------------ <-- SCF
Initial  -4.61403604E+003  0.00000000E+000                         9.13  <-- SCF
      1  -5.59790989E+003  1.32457940E+001   1.22984232E+002       9.49  <-- SCF
      2  -5.74744801E+003  7.34150450E+000   1.86922653E+001       9.76  <-- SCF
      3  -5.74932126E+003  7.30461737E+000   2.34156247E-001      10.00  <-- SCF
      4  -5.74717787E+003  1.02535157E+001  -2.67923749E-001      10.31  <-- SCF
      5  -5.74421215E+003  9.38737712E+000  -3.70715479E-001      10.62  <-- SCF
      6  -5.74417544E+003  9.62511739E+000  -4.58887105E-003      10.95  <-- SCF
      7  -5.74417580E+003  9.62617196E+000   4.54688251E-005      11.29  <-- SCF
      8  -5.74417578E+003  9.62356097E+000  -3.35100103E-006      11.61  <-- SCF
      9  -5.74417578E+003  9.62195572E+000  -9.13824077E-008      11.90  <-- SCF
     10  -5.74417578E+003  9.62230739E+000  -2.57868921E-008      12.12  <-- SCF
     11  -5.74417578E+003  9.62241850E+000   8.71325106E-010      12.34  <-- SCF
------------------------------------------------------------------------ <-- SCF
 
Final energy, E             =  -5744.175775114     eV
Final free energy (E-TS)    =  -5744.175775114     eV
(energies not corrected for finite basis set)
 
NB est. 0K energy (E-0.5TS)      =  -5744.175775114     eV
 
Calculating total energy with cut-off of  275.000eV.
------------------------------------------------------------------------ <-- SCF
SCF loop      Energy           Fermi           Energy gain       Timer   <-- SCF
                               energy          per atom          (sec)   <-- SCF
------------------------------------------------------------------------ <-- SCF
Initial  -5.74417578E+003  0.00000000E+000                        12.45  <-- SCF
      1  -5.74740934E+003  9.29569687E+000   4.04195188E-001      12.69  <-- SCF
      2  -5.74741525E+003  9.29566470E+000   7.39449911E-004      12.99  <-- SCF
      3  -5.74740980E+003  9.57234354E+000  -6.81475870E-004      13.28  <-- SCF
      4  -5.74738702E+003  9.40819736E+000  -2.84716293E-003      13.58  <-- SCF
      5  -5.74738640E+003  9.42919391E+000  -7.80628886E-005      13.88  <-- SCF
      6  -5.74738640E+003  9.43112401E+000   3.13734173E-007      14.15  <-- SCF
      7  -5.74738640E+003  9.43054485E+000  -6.50882658E-008      14.36  <-- SCF
      8  -5.74738640E+003  9.43051712E+000   3.05239309E-009      14.56  <-- SCF
------------------------------------------------------------------------ <-- SCF
 
Final energy, E             =  -5747.386400608     eV
Final free energy (E-TS)    =  -5747.386400608     eV
(energies not corrected for finite basis set)
 
NB est. 0K energy (E-0.5TS)      =  -5747.386400608     eV
 
Calculating total energy with cut-off of  280.000eV.
------------------------------------------------------------------------ <-- SCF
SCF loop      Energy           Fermi           Energy gain       Timer   <-- SCF
                               energy          per atom          (sec)   <-- SCF
------------------------------------------------------------------------ <-- SCF
Initial  -5.74738640E+003  0.00000000E+000                        14.67  <-- SCF
      1  -5.74966887E+003  9.43056229E+000   2.85308441E-001      14.89  <-- SCF
      2  -5.74967313E+003  9.43056229E+000   5.33156076E-004      15.16  <-- SCF
      3  -5.74967047E+003  9.61315209E+000  -3.33290699E-004      15.46  <-- SCF
      4  -5.74966109E+003  9.48896135E+000  -1.17220260E-003      15.76  <-- SCF
      5  -5.74965996E+003  9.51730352E+000  -1.41406776E-004      16.05  <-- SCF
      6  -5.74965996E+003  9.51844819E+000   6.74448845E-007      16.30  <-- SCF
      7  -5.74965996E+003  9.51806108E+000  -2.74109230E-008      16.50  <-- SCF
      8  -5.74965996E+003  9.51798438E+000   1.24787135E-009      16.69  <-- SCF
------------------------------------------------------------------------ <-- SCF
 
Final energy, E             =  -5749.659963365     eV
Final free energy (E-TS)    =  -5749.659963365     eV
(energies not corrected for finite basis set)
 
NB est. 0K energy (E-0.5TS)      =  -5749.659963365     eV
 
 For future reference: finite basis dEtot/dlog(Ecut) =    -136.598571eV
 Total energy corrected for finite basis set =   -5749.814201 eV
 
 ***************** Symmetrised Forces *****************
 *                                                    *
 *            Cartesian components (eV/A)             *
 * -------------------------------------------------- *
 *                   x            y            z      *
 *                                                    *
 * O         1      0.00000      0.00000      0.00000 *
 * O         2      0.00000      0.00000      0.00000 *
 * O         3      0.00000      0.00000      0.00000 *
 * O         4      0.00000      0.00000      0.00000 *
 * Ca        1      0.00000      0.00000      0.00000 *
 * Ca        2      0.00000      0.00000      0.00000 *
 * Ca        3      0.00000      0.00000      0.00000 *
 * Ca        4      0.00000      0.00000      0.00000 *
 *                                                    *
 ******************************************************
 
 *********** Symmetrised Stress Tensor ***********
 *                                               *
 *          Cartesian components (GPa)           *
 * --------------------------------------------- *
 *             x             y             z     *
 *                                               *
 *  x   -106.399139      0.000000      0.000000  *
 *  y      0.000000   -106.399139      0.000000  *
 *  z      0.000000      0.000000   -106.399139  *
 *                                               *
 *  Pressure:  106.3991                          *
 *                                               *
 *************************************************
 
 Pseudo atomic calculation performed for O 2s2 2p4
 
 Converged in 28 iterations to a total energy of -424.4682 eV
 
 
 Pseudo atomic calculation performed for Ca 3s2 3p6 4s2
 
 Converged in 24 iterations to a total energy of -1001.5365 eV
 
Charge spilling parameter for spin component 1 = 0.16%
 
     Atomic Populations (Mulliken)
     -----------------------------
Species   Ion     s      p      d      f     Total  Charge (e)
==============================================================
  O        1     1.85   5.01   0.00   0.00   6.87    -0.87
  O        2     1.85   5.01   0.00   0.00   6.87    -0.87
  O        3     1.85   5.01   0.00   0.00   6.87    -0.87
  O        4     1.85   5.01   0.00   0.00   6.87    -0.87
  Ca       1     2.13   5.99   1.01   0.00   9.13     0.87
  Ca       2     2.13   5.99   1.01   0.00   9.13     0.87
  Ca       3     2.13   5.99   1.01   0.00   9.13     0.87
  Ca       4     2.13   5.99   1.01   0.00   9.13     0.87
==============================================================
 
            Bond              Population      Length (A)
============================================================
          O 4 -- Ca 3              0.17        2.10000
          O 4 -- Ca 2              0.17        2.10000
          O 4 -- Ca 1              0.17        2.10000
          O 3 -- Ca 4              0.17        2.10000
          O 3 -- Ca 2              0.17        2.10000
          O 3 -- Ca 1              0.17        2.10000
          O 2 -- Ca 4              0.17        2.10000
          O 2 -- Ca 3              0.17        2.10000
          O 2 -- Ca 1              0.17        2.10000
          O 1 -- Ca 4              0.17        2.10000
          O 1 -- Ca 3              0.17        2.10000
          O 1 -- Ca 2              0.17        2.10000
         Ca 3 -- Ca 4             -0.25        2.96985
         Ca 2 -- Ca 4             -0.25        2.96985
         Ca 2 -- Ca 3             -0.25        2.96985
         Ca 1 -- Ca 4             -0.25        2.96985
         Ca 1 -- Ca 3             -0.25        2.96985
         Ca 1 -- Ca 2             -0.25        2.96985
          O 3 -- O 4              -0.05        2.96985
          O 2 -- O 4              -0.05        2.96985
          O 2 -- O 3              -0.05        2.96985
          O 1 -- O 4              -0.05        2.96985
          O 1 -- O 3              -0.05        2.96985
          O 1 -- O 2              -0.05        2.96985
============================================================
 

Writing analysis data to ../cell/Mg0Ca100.castep_bin

Writing model to ../cell/Mg0Ca100.check
 
 A BibTeX formatted list of references used in this run has been written to 
 ../cell/Mg0Ca100.bib
 
Initialisation time =      7.89 s
Calculation time    =      9.89 s
Finalisation time   =      0.39 s
Total time          =     18.17 s
Peak Memory Use     = 520756 kB
