 +-------------------------------------------------+
 |                                                 |
 |      CCC   AA    SSS  TTTTT  EEEEE  PPPP        |
 |     C     A  A  S       T    E      P   P       |
 |     C     AAAA   SS     T    EEE    PPPP        |
 |     C     A  A     S    T    E      P           |
 |      CCC  A  A  SSS     T    EEEEE  P           |
 |                                                 |
 +-------------------------------------------------+
 |                                                 |
 | Welcome to Academic Release CASTEP version 9.0  |
 | Ab Initio Total Energy Program                  |
 |                                                 |
 | Authors:                                        |
 | M. Segall, M. Probert, C. Pickard, P. Hasnip,   |
 | S. Clark, K. Refson, J. R. Yates, M. Payne      |
 |                                                 |
 | Contributors:                                   |
 | P. Lindan, P. Haynes, J. White, V. Milman,      |
 | N. Govind, M. Gibson, P. Tulip, V. Cocula,      |
 | B. Montanari, D. Quigley, M. Glover,            |
 | L. Bernasconi, A. Perlov, M. Plummer,           |
 | E. McNellis, J. Meyer, J. Gale, D. Jochym       |
 | J. Aarons, B. Walker, R. Gillen, D. Jones       |
 | T. Green, I. J. Bush, C. J. Armstrong,          |
 | E. J. Higgins, M. D. Hodgson                    |
 |                                                 |
 | Copyright (c) 2000 - 2015                       |
 |                                                 |
 |     Distributed under the terms of an           |
 |     Agreement between the United Kingdom        |
 |     Car-Parrinello (UKCP) Consortium,           |
 |     Daresbury Laboratory and Accelrys, Inc.     |
 |                                                 |
 | Please cite                                     |
 |                                                 |
 |     "First principles methods using CASTEP"     |
 |                                                 |
 |         Zeitschrift fuer Kristallographie       |
 |           220(5-6) pp. 567-570 (2005)           |
 |                                                 |
 | S. J. Clark, M. D. Segall, C. J. Pickard,       |
 | P. J. Hasnip, M. J. Probert, K. Refson,         |
 | M. C. Payne                                     |
 |                                                 |
 |       in all publications arising from          |
 |              your use of CASTEP                 |
 |                                                 |
 +-------------------------------------------------+
 
 
 Compiled for linux_x86_64_ifort12 on Fri, 09 Oct 2015 16:14:59 +0100
 from code version 01cdeb6dcbec+  Thu, 01 Oct 2015 17:06:55 +0100
 Compiler: Intel Fortran 12.1.5.339; Optimisation: fast
 MATHLIBS: Intel MKL(11.0.5) (LAPACK version 3.4.1)
 FFT Lib : default
 Fundamental constants values: CODATA 2010
 
 Run started: Fri, 29 Apr 2016 14:33:03 +0100
 
 Atomic calculation performed for Mg: 1s2 2s2 2p6 3s2
 
 Converged in 47 iterations to an ae energy of -5427.407 eV
 
   ============================================================                
   | Pseudopotential Report - Date of generation 29-04-2016   |                
   ------------------------------------------------------------                
   | Element: Mg Ionic charge: 10.00 Level of theory: LDA     |                
   | Atomic Solver: Koelling-Harmon                           |                
   |                                                          |                
   |               Reference Electronic Structure             |                
   |         Orbital         Occupation         Energy        |                
   |            2s              2.000           -2.914        |                
   |            2p              6.000           -1.717        |                
   |            3s              2.000           -0.176        |                
   |                                                          |                
   |                 Pseudopotential Definition               |                
   |        Beta     l      e      Rc     scheme   norm       |                
   |          1      0   -2.914   1.804     qc      0         |                
   |          2      0   -0.176   1.804     qc      0         |                
   |          3      0    0.250   1.804     qc      0         |                
   |          4      1   -1.717   1.804     qc      0         |                
   |          5      1    0.250   1.804     qc      0         |                
   |          6      2    0.000   1.804     qc      0         |                
   |          7      2    0.250   1.804     qc      0         |                
   |         loc     3    0.000   1.804     pn      0         |                
   |                                                          |                
   | Augmentation charge Rinner = 1.261                       |                
   | Partial core correction Rc = 1.261                       |                
   ------------------------------------------------------------                
   | "3|1.8|7|8|9|20U:30:21:32"                               |                
   ------------------------------------------------------------                
   |      Author: Chris J. Pickard, Cambridge University      |                
   ============================================================                
 
 Atomic calculation performed for Ca: 1s2 2s2 2p6 3s2 3p6 4s2
 
 Converged in 44 iterations to an ae energy of -18468.059 eV
 
   ============================================================                
   | Pseudopotential Report - Date of generation 29-04-2016   |                
   ------------------------------------------------------------                
   | Element: Ca Ionic charge: 10.00 Level of theory: LDA     |                
   | Atomic Solver: Koelling-Harmon                           |                
   |                                                          |                
   |               Reference Electronic Structure             |                
   |         Orbital         Occupation         Energy        |                
   |            3s              2.000           -1.721        |                
   |            3p              6.000           -1.028        |                
   |            4s              2.000           -0.142        |                
   |                                                          |                
   |                 Pseudopotential Definition               |                
   |        Beta     l      e      Rc     scheme   norm       |                
   |          1      0   -1.721   2.005     qc      0         |                
   |          2      0   -0.142   2.005     qc      0         |                
   |          3      0    0.250   2.005     qc      0         |                
   |          4      1   -1.028   2.005     qc      0         |                
   |          5      1    0.250   2.005     qc      0         |                
   |          6      2    0.000   2.005     qc      0         |                
   |          7      2    0.250   2.005     qc      0         |                
   |         loc     3    0.000   2.005     pn      0         |                
   |                                                          |                
   | Augmentation charge Rinner = 1.401                       |                
   | Partial core correction Rc = 1.401                       |                
   ------------------------------------------------------------                
   | "3|2.0|7|8|9|30U:40:31:32"                               |                
   ------------------------------------------------------------                
   |      Author: Chris J. Pickard, Cambridge University      |                
   ============================================================                
 
 Pseudo atomic calculation performed for Mg 2s2 2p6 3s2
 
 Converged in 19 iterations to a total energy of -1684.1269 eV
 
 
 Pseudo atomic calculation performed for Ca 3s2 3p6 4s2
 
 Converged in 24 iterations to a total energy of -1001.4771 eV
 
 Calculation not parallelised.

 ************************************ Title ************************************
 MgO

 ***************************** General Parameters ******************************
  
 output verbosity                               : normal  (1)
 write checkpoint data to                       : ../cutoff.check
 type of calculation                            : single point energy
 stress calculation                             : on
 density difference calculation                 : off
 electron localisation func (ELF) calculation   : off
 Hirshfeld analysis                             : off
 unlimited duration calculation
 timing information                             : on
 memory usage estimate                          : on
 write final potential to formatted file        : off
 write final density to formatted file          : off
 write BibTeX reference list                    : on
 write OTFG pseudopotential files               : on
 checkpoint writing                             : both castep_bin and check files
  
 output         length unit                     : A
 output           mass unit                     : amu
 output           time unit                     : ps
 output         charge unit                     : e
 output           spin unit                     : hbar/2
 output         energy unit                     : eV
 output          force unit                     : eV/A
 output       velocity unit                     : A/ps
 output       pressure unit                     : GPa
 output     inv_length unit                     : 1/A
 output      frequency unit                     : cm-1
 output force constant unit                     : eV/A**2
 output         volume unit                     : A**3
 output   IR intensity unit                     : (D/A)**2/amu
 output         dipole unit                     : D
 output         efield unit                     : eV/A/e
 output        entropy unit                     : J/mol/K
  
 wavefunctions paging                           : none
 random number generator seed                   : randomised (143303732)
 data distribution                              : optimal for this architecture
 optimization strategy                          : maximize speed(+++)

 *********************** Exchange-Correlation Parameters ***********************
  
 using functional                               : Local Density Approximation
 relativistic treatment                         : Koelling-Harmon
 DFT+D: Semi-empirical dispersion correction    : off

 ************************* Pseudopotential Parameters **************************
  
 pseudopotential representation                 : reciprocal space
 <beta|phi> representation                      : reciprocal space
 spin-orbit coupling                            : off

 **************************** Basis Set Parameters *****************************
  
 plane wave basis set cut-off                   :   260.0000   eV
 size of standard grid                          :     2.0000
 size of   fine   gmax                          :    16.5217   1/A
 finite basis set correction                    : automatic
 number of sample energies                      :          3
           sample  spacing                      :     5.0000   eV

 **************************** Electronic Parameters ****************************
  
 number of  electrons                           :  80.00    
 net charge of system                           :  0.000    
 treating system as non-spin-polarized
 number of bands                                :         48

 ********************* Electronic Minimization Parameters **********************
  
 Method: Treating system as metallic with density mixing treatment of electrons,
         and number of  SD  steps               :          1
         and number of  CG  steps               :          4
  
 total energy / atom convergence tol.           : 0.1000E-06   eV
 eigen-energy convergence tolerance             : 0.2000E-07   eV
 max force / atom convergence tol.              : ignored
 convergence tolerance window                   :          3   cycles
 max. number of SCF cycles                      :         60
 number of fixed-spin iterations                :         10
 smearing scheme                                : Gaussian
 smearing width                                 : 0.2000       eV
 Fermi energy convergence tolerance             : 0.2721E-13   eV
 periodic dipole correction                     : NONE

 ************************** Density Mixing Parameters **************************
  
 density-mixing scheme                          : Pulay
 max. length of mixing history                  :         30
 charge density mixing amplitude                : 0.8000    
 cut-off energy for mixing                      :  260.0       eV

 *********************** Population Analysis Parameters ************************
  
 Population analysis with cutoff                :  3.000       A

 *******************************************************************************
  
 
                           -------------------------------
                                      Unit Cell
                           -------------------------------
        Real Lattice(A)                      Reciprocal Lattice(1/A)
   4.2000000   0.0000000   0.0000000        1.4959965   0.0000000   0.0000000
   0.0000000   4.2000000   0.0000000        0.0000000   1.4959965   0.0000000
   0.0000000   0.0000000   4.2000000        0.0000000   0.0000000   1.4959965
 
                       Lattice parameters(A)       Cell Angles
                    a =    4.200000          alpha =   90.000000
                    b =    4.200000          beta  =   90.000000
                    c =    4.200000          gamma =   90.000000
 
                       Current cell volume =   74.088000       A**3
 
                           -------------------------------
                                     Cell Contents
                           -------------------------------
                         Total number of ions in cell =    8
                      Total number of species in cell =    2
                        Max number of any one species =    4
 
            xxxxxxxxxxxxxxxxxxxxxxxxxxxxxxxxxxxxxxxxxxxxxxxxxxxxxxxxxxxx
            x  Element    Atom        Fractional coordinates of atoms  x
            x            Number           u          v          w      x
            x----------------------------------------------------------x
            x  Mg           1         0.000000   0.000000   0.000000   x 
            x  Mg           2         0.000000   0.500000   0.500000   x 
            x  Mg           3         0.500000   0.000000   0.500000   x 
            x  Mg           4         0.500000   0.500000   0.000000   x 
            x  Ca           1         0.500000   0.500000   0.500000   x 
            x  Ca           2         0.500000   0.000000   0.000000   x 
            x  Ca           3         0.000000   0.500000   0.000000   x 
            x  Ca           4         0.000000   0.000000   0.500000   x 
            xxxxxxxxxxxxxxxxxxxxxxxxxxxxxxxxxxxxxxxxxxxxxxxxxxxxxxxxxxxx
 
 
                         No user defined ionic velocities
 
                           -------------------------------
                                   Details of Species
                           -------------------------------
 
                               Mass of species in AMU
                                    Mg   24.3050000
                                    Ca   40.0780000
 
                          Electric Quadrupole Moment (Barn)
                                    Mg    0.1994000 Isotope 25
                                    Ca   -0.0408000 Isotope 43
 
                          Files used for pseudopotentials:
                                    Mg 3|1.8|7|8|9|20U:30:21:32
                                    Ca 3|2.0|7|8|9|30U:40:31:32
 
                           -------------------------------
                              k-Points For BZ Sampling
                           -------------------------------
                       MP grid size for SCF calculation is  3  3  3
                            with an offset of   0.000  0.000  0.000
                       Number of kpoints used =             4
 
                           -------------------------------
                               Symmetry and Constraints
                           -------------------------------
 
                      Cell is a supercell containing 4 primitive cells
                      Maximum deviation from symmetry = 0.940008E-15     ANG
 
                      Number of symmetry operations   =         192
                      Number of ionic constraints     =           3
                      Point group of crystal =    32: Oh, m-3m, 4/m -3 2/m
                      Space group of crystal =   225: Fm-3m, -F 4 2 3
 
             Set iprint > 1 for details on symmetry rotations/translations
 
                         Centre of mass is constrained
             Set iprint > 1 for details of linear ionic constraints
 
                         Number of cell constraints= 5
                         Cell constraints are:  1 1 1 0 0 0
 
                         External pressure/stress (GPa)
                          0.00000   0.00000   0.00000
                                    0.00000   0.00000
                                              0.00000
  
+---------------- MEMORY AND SCRATCH DISK ESTIMATES PER PROCESS --------------+
|                                                     Memory          Disk    |
| Baseline code, static data and system overhead      146.0 MB         0.0 MB |
| BLAS internal memory storage                          0.0 MB         0.0 MB |
| Model and support data                               83.6 MB         0.0 MB |
| Electronic energy minimisation requirements           8.0 MB         0.0 MB |
| Force calculation requirements                        1.8 MB         0.0 MB |
| Stress calculation requirements                       2.1 MB         0.0 MB |
|                                               ----------------------------- |
| Approx. total storage required per process          237.6 MB         0.0 MB |
|                                                                             |
| Requirements will fluctuate during execution and may exceed these estimates |
+-----------------------------------------------------------------------------+
Calculating finite basis set correction with  3 cut-off energies.
Calculating total energy with cut-off of  250.000eV.
------------------------------------------------------------------------ <-- SCF
SCF loop      Energy           Fermi           Energy gain       Timer   <-- SCF
                               energy          per atom          (sec)   <-- SCF
------------------------------------------------------------------------ <-- SCF
Initial  -8.63991523E+003  0.00000000E+000                        10.22  <-- SCF
      1  -1.05444470E+004  1.46439100E+001   2.38066469E+002      10.66  <-- SCF
      2  -1.07068083E+004  1.34628551E+001   2.02951607E+001      11.01  <-- SCF
      3  -1.07105743E+004  1.35963342E+001   4.70749980E-001      11.37  <-- SCF
      4  -1.07094562E+004  1.37449657E+001  -1.39760692E-001      11.78  <-- SCF
      5  -1.07093933E+004  1.37087989E+001  -7.86580714E-003      12.21  <-- SCF
      6  -1.07093889E+004  1.37259983E+001  -5.41810675E-004      12.62  <-- SCF
      7  -1.07093889E+004  1.37238640E+001  -1.72891357E-006      13.09  <-- SCF
      8  -1.07093889E+004  1.37238707E+001   2.11170807E-007      13.41  <-- SCF
      9  -1.07093889E+004  1.37237963E+001   2.44682552E-009      13.70  <-- SCF
     10  -1.07093889E+004  1.37238161E+001   1.72563554E-009      13.99  <-- SCF
     11  -1.07093889E+004  1.37238143E+001   9.90331120E-010      14.27  <-- SCF
------------------------------------------------------------------------ <-- SCF
 
Final energy, E             =  -10709.20854249     eV
Final free energy (E-TS)    =  -10709.38891610     eV
(energies not corrected for finite basis set)
 
NB est. 0K energy (E-0.5TS)      =  -10709.29872929     eV
 
Calculating total energy with cut-off of  255.000eV.
------------------------------------------------------------------------ <-- SCF
SCF loop      Energy           Fermi           Energy gain       Timer   <-- SCF
                               energy          per atom          (sec)   <-- SCF
------------------------------------------------------------------------ <-- SCF
Initial  -1.07092085E+004  0.00000000E+000                        14.44  <-- SCF
      1  -1.07099433E+004  1.37198846E+001   9.18450937E-002      14.74  <-- SCF
      2  -1.07099439E+004  1.37198843E+001   7.55034797E-005      15.13  <-- SCF
      3  -1.07099428E+004  1.37257091E+001  -1.33380027E-004      15.54  <-- SCF
      4  -1.07099429E+004  1.37225104E+001   1.46673047E-006      15.96  <-- SCF
      5  -1.07099428E+004  1.37241217E+001  -2.20722359E-006      16.37  <-- SCF
      6  -1.07099428E+004  1.37238461E+001  -7.57783121E-008      16.67  <-- SCF
      7  -1.07099428E+004  1.37238976E+001  -3.66376111E-009      16.96  <-- SCF
------------------------------------------------------------------------ <-- SCF
 
Final energy, E             =  -10709.76576809     eV
Final free energy (E-TS)    =  -10709.94283366     eV
(energies not corrected for finite basis set)
 
NB est. 0K energy (E-0.5TS)      =  -10709.85430088     eV
 
Calculating total energy with cut-off of  260.000eV.
------------------------------------------------------------------------ <-- SCF
SCF loop      Energy           Fermi           Energy gain       Timer   <-- SCF
                               energy          per atom          (sec)   <-- SCF
------------------------------------------------------------------------ <-- SCF
Initial  -1.07097658E+004  0.00000000E+000                        17.13  <-- SCF
      1  -1.07102104E+004  1.37213602E+001   5.55821909E-002      17.47  <-- SCF
      2  -1.07102107E+004  1.37213602E+001   3.27871582E-005      17.90  <-- SCF
      3  -1.07102104E+004  1.37242354E+001  -3.52928733E-005      18.32  <-- SCF
      4  -1.07102104E+004  1.37226213E+001   3.91464821E-007      18.75  <-- SCF
      5  -1.07102104E+004  1.37235689E+001  -5.23768380E-007      19.13  <-- SCF
      6  -1.07102104E+004  1.37232956E+001  -7.67655496E-008      19.43  <-- SCF
      7  -1.07102104E+004  1.37233279E+001  -3.83023418E-010      19.73  <-- SCF
------------------------------------------------------------------------ <-- SCF
 
Final energy, E             =  -10710.03180287     eV
Final free energy (E-TS)    =  -10710.21040389     eV
(energies not corrected for finite basis set)
 
NB est. 0K energy (E-0.5TS)      =  -10710.12110338     eV
 
 For future reference: finite basis dEtot/dlog(Ecut) =     -18.377303eV
 Total energy corrected for finite basis set =  -10710.178862 eV
 
 ***************** Symmetrised Forces *****************
 *                                                    *
 *            Cartesian components (eV/A)             *
 * -------------------------------------------------- *
 *                   x            y            z      *
 *                                                    *
 * Mg        1      0.00000      0.00000      0.00000 *
 * Mg        2      0.00000      0.00000      0.00000 *
 * Mg        3      0.00000      0.00000      0.00000 *
 * Mg        4      0.00000      0.00000      0.00000 *
 * Ca        1      0.00000      0.00000      0.00000 *
 * Ca        2      0.00000      0.00000      0.00000 *
 * Ca        3      0.00000      0.00000      0.00000 *
 * Ca        4      0.00000      0.00000      0.00000 *
 *                                                    *
 ******************************************************
 
 *********** Symmetrised Stress Tensor ***********
 *                                               *
 *          Cartesian components (GPa)           *
 * --------------------------------------------- *
 *             x             y             z     *
 *                                               *
 *  x   -207.404230      0.000000      0.000000  *
 *  y      0.000000   -207.404230      0.000000  *
 *  z      0.000000      0.000000   -207.404230  *
 *                                               *
 *  Pressure:  207.4042                          *
 *                                               *
 *************************************************
 
 Pseudo atomic calculation performed for Mg 2s2 2p6 3s2
 
 Converged in 19 iterations to a total energy of -1684.1269 eV
 
 
 Pseudo atomic calculation performed for Ca 3s2 3p6 4s2
 
 Converged in 24 iterations to a total energy of -1001.4771 eV
 
Charge spilling parameter for spin component 1 = 0.43%
 
     Atomic Populations (Mulliken)
     -----------------------------
Species   Ion     s      p      d      f     Total  Charge (e)
==============================================================
  Mg       1     2.52   7.49   0.00   0.00  10.02    -0.02
  Mg       2     2.52   7.49   0.00   0.00  10.02    -0.02
  Mg       3     2.52   7.49   0.00   0.00  10.02    -0.02
  Mg       4     2.52   7.49   0.00   0.00  10.02    -0.02
  Ca       1     1.51   5.73   2.74   0.00   9.98     0.02
  Ca       2     1.51   5.73   2.74   0.00   9.98     0.02
  Ca       3     1.51   5.73   2.74   0.00   9.98     0.02
  Ca       4     1.51   5.73   2.74   0.00   9.98     0.02
==============================================================
 
            Bond              Population      Length (A)
============================================================
         Mg 4 -- Ca 3             -5.47        2.10000
         Mg 4 -- Ca 2             -5.47        2.10000
         Mg 4 -- Ca 1             -5.47        2.10000
         Mg 3 -- Ca 4             -5.47        2.10000
         Mg 3 -- Ca 2             -5.47        2.10000
         Mg 3 -- Ca 1             -5.47        2.10000
         Mg 2 -- Ca 4             -5.47        2.10000
         Mg 2 -- Ca 3             -5.47        2.10000
         Mg 2 -- Ca 1             -5.47        2.10000
         Mg 1 -- Ca 4             -5.47        2.10000
         Mg 1 -- Ca 3             -5.47        2.10000
         Mg 1 -- Ca 2             -5.47        2.10000
         Ca 3 -- Ca 4             -6.27        2.96985
         Ca 2 -- Ca 4             -6.27        2.96985
         Ca 2 -- Ca 3             -6.27        2.96985
         Ca 1 -- Ca 4             -6.27        2.96985
         Ca 1 -- Ca 3             -6.27        2.96985
         Ca 1 -- Ca 2             -6.27        2.96985
         Mg 3 -- Mg 4              0.04        2.96985
         Mg 2 -- Mg 4              0.04        2.96985
         Mg 2 -- Mg 3              0.04        2.96985
         Mg 1 -- Mg 4              0.04        2.96985
         Mg 1 -- Mg 3              0.04        2.96985
         Mg 1 -- Mg 2              0.04        2.96985
============================================================
 

Writing analysis data to ../cutoff.castep_bin

Writing model to ../cutoff.check
 
 A BibTeX formatted list of references used in this run has been written to 
 ../cutoff.bib
 
Initialisation time =      9.01 s
Calculation time    =     12.86 s
Finalisation time   =      0.38 s
Total time          =     22.25 s
Peak Memory Use     = 520996 kB
