 +-------------------------------------------------+
 |                                                 |
 |      CCC   AA    SSS  TTTTT  EEEEE  PPPP        |
 |     C     A  A  S       T    E      P   P       |
 |     C     AAAA   SS     T    EEE    PPPP        |
 |     C     A  A     S    T    E      P           |
 |      CCC  A  A  SSS     T    EEEEE  P           |
 |                                                 |
 +-------------------------------------------------+
 |                                                 |
 | Welcome to Academic Release CASTEP version 6.1  |
 | Ab Initio Total Energy Program                  |
 |                                                 |
 | Authors:                                        |
 | M. Segall, M. Probert, C. Pickard, P. Hasnip,   |
 | S. Clark, K. Refson, J. R. Yates, M. Payne      |
 |                                                 |
 | Contributors:                                   |
 | P. Lindan, P. Haynes, J. White, V. Milman,      |
 | N. Govind, M. Gibson, P. Tulip, V. Cocula,      |
 | B. Montanari, D. Quigley, M. Glover,            |
 | L. Bernasconi, A. Perlov, M. Plummer,           |
 | E. McNellis, J. Meyer, J. Gale, D. Jochym       |
 | J. Aarons, B. Walker, R. Gillen                 |
 |                                                 |
 | Copyright (c) 2000 - 2012                       |
 |                                                 |
 |     Distributed under the terms of an           |
 |     Agreement between the United Kingdom        |
 |     Car-Parrinello (UKCP) Consortium,           |
 |     Daresbury Laboratory and Accelrys, Inc.     |
 |                                                 |
 | Please cite                                     |
 |                                                 |
 |     "First principles methods using CASTEP"     |
 |                                                 |
 |         Zeitschrift fuer Kristallographie       |
 |           220(5-6) pp. 567-570 (2005)           |
 |                                                 |
 | S. J. Clark, M. D. Segall, C. J. Pickard,       |
 | P. J. Hasnip, M. J. Probert, K. Refson,         |
 | M. C. Payne                                     |
 |                                                 |
 |       in all publications arising from          |
 |              your use of CASTEP                 |
 |                                                 |
 +-------------------------------------------------+


 Compiled for linux_x86_64_gfortran on Wed Nov 21 15:08:09 2012
 from source code version eaed21d6e002+  2012-10-31
 using fast optimisation, fftw3 FFTs and openblas LAPACK and BLAS.


 Atomic calculation performed for O: 1s2 2s2 2p4

 Converged in 60 iterations to an ae energy of -2027.926 eV

   ============================================================                
   | Pseudopotential Report - Date of generation  3-05-2016   |                
   ------------------------------------------------------------                
   | Element: O Ionic charge:  6.00 Level of theory: LDA      |                
   |                                                          |                
   |               Reference Electronic Structure             |                
   |         Orbital         Occupation         Energy        |                
   |            2s              2.000           -0.873        |                
   |            2p              4.000           -0.338        |                
   |                                                          |                
   |                 Pseudopotential Definition               |                
   |        Beta     l      e      Rc     scheme   norm       |                
   |          1      0   -0.873   1.300     qc      0         |                
   |          2      0    0.250   1.300     qc      0         |                
   |          3      1   -0.338   1.300     qc      0         |                
   |          4      1    0.250   1.300     qc      0         |                
   |         loc     2    0.000   1.004     pn      0         |                
   |                                                          |                
   | Augmentation charge Rinner = 0.701                       |                
   | Partial core correction Rc = 0.701                       |                
   ------------------------------------------------------------                
   | "2|1.0|1.3|0.7|13|16|18|20:21(qc=7)"                     |                
   ------------------------------------------------------------                
   |      Author: Chris J. Pickard, Cambridge University      |                
   ============================================================                

 Atomic calculation performed for Mg: 1s2 2s2 2p6 3s2

 Converged in 47 iterations to an ae energy of -5427.407 eV

 Identity difference:   5.17267234911703770E-004

   ============================================================                
   | Pseudopotential Report - Date of generation  3-05-2016   |                
   ------------------------------------------------------------                
   | Element: Mg Ionic charge:  8.00 Level of theory: LDA     |                
   |                                                          |                
   |               Reference Electronic Structure             |                
   |         Orbital         Occupation         Energy        |                
   |            2p              6.000           -1.717        |                
   |            3s              2.000           -0.176        |                
   |                                                          |                
   |                 Pseudopotential Definition               |                
   |        Beta     l      e      Rc     scheme   norm       |                
   |          1      0   -0.176   1.994     qc      1         |                
   |          2      1   -1.717   1.994     qc      0         |                
   |          3      1    0.000   1.994     qc      0         |                
   |          4      1    0.250   1.994     qc      0         |                
   |         loc     2    0.000   1.605     pn      0         |                
   |                                                          |                
   | Augmentation charge Rinner = 1.405                       |                
   | Partial core correction Rc = 1.405                       |                
   ------------------------------------------------------------                
   | "2|1.6|2|1.4|6|7|8|30NH:21U:31UU:32LGG(qc=4.5)[]"        |                
   ------------------------------------------------------------                
   |      Author: Chris J. Pickard, Cambridge University      |                
   ============================================================                

 Doing a self consistent calculation for the test configuration

 Atomic calculation performed for Mg: 1s2 2s2 2p6 3s2

 Converged in 47 iterations to an ae energy of -5427.407 eV

 ---------------------------------------
 AE eigenvalue nl 10 =      -46.06264936
 AE eigenvalue nl 20 =       -2.91364591
 AE eigenvalue nl 21 =       -1.71672732
 AE eigenvalue nl 30 =       -0.17593422
 ---------------------------------------
 PS eigenvalue nl 21 =       -1.71622098
 PS eigenvalue nl 30 =       -0.17592300
 ---------------------------------------

 Atomic calculation performed for Ca: 1s2 2s2 2p6 3s2 3p6 4s2

 Converged in 44 iterations to an ae energy of -18468.058 eV

   ============================================================                
   | Pseudopotential Report - Date of generation  3-05-2016   |                
   ------------------------------------------------------------                
   | Element: Ca Ionic charge: 10.00 Level of theory: LDA     |                
   |                                                          |                
   |               Reference Electronic Structure             |                
   |         Orbital         Occupation         Energy        |                
   |            3s              2.000           -1.721        |                
   |            3p              6.000           -1.028        |                
   |            4s              2.000           -0.142        |                
   |                                                          |                
   |                 Pseudopotential Definition               |                
   |        Beta     l      e      Rc     scheme   norm       |                
   |          1      0   -1.721   2.005     qc      0         |                
   |          2      0   -0.142   2.005     qc      0         |                
   |          3      1   -1.028   2.005     qc      0         |                
   |          4      1    0.250   2.005     qc      0         |                
   |          5      2    0.000   2.005     qc      0         |                
   |          6      2    1.000   2.005     qc      0         |                
   |         loc     3    0.000   1.601     pn      0         |                
   |                                                          |                
   | Augmentation charge Rinner = 1.401                       |                
   | Partial core correction Rc = 1.401                       |                
   ------------------------------------------------------------                
   | "3|1.6|2.0|1.4|7|9|10|30U:40U:31:32U=0U=1.0"             |                
   ------------------------------------------------------------                
   |      Author: Chris J. Pickard, Cambridge University      |                
   ============================================================                

 Pseudo atomic calculation performed for O 2s2 2p4

 Converged in 30 iterations to a total energy of -431.1785 eV


 Pseudo atomic calculation performed for Mg 2p6 3s2

 Converged in 23 iterations to a total energy of -1024.5896 eV


 Pseudo atomic calculation performed for Ca 3s2 3p6 4s2

 Converged in 24 iterations to a total energy of -1000.4330 eV

 Calculation parallelised over 2 processes.
 Data is distributed by k-point(2-way)

 ************************************ Title ************************************
 MgO

 ***************************** General Parameters ******************************
  
 output verbosity                               : normal  (1)
 write checkpoint data to                       : dan_0.check
 type of calculation                            : geometry optimization
 stress calculation                             : on
 density difference calculation                 : off
 electron localisation func (ELF) calculation   : off
 Hirshfeld analysis                             : off
 unlimited duration calculation
 timing information                             : on
 memory usage estimate                          : on
 write final potential to formatted file        : off
 write final density to formatted file          : off
 write BibTeX reference list                    : on
  
 output         length unit                     : A
 output           mass unit                     : amu
 output           time unit                     : ps
 output         charge unit                     : e
 output         energy unit                     : eV
 output          force unit                     : eV/A
 output       velocity unit                     : A/ps
 output       pressure unit                     : GPa
 output     inv_length unit                     : 1/A
 output      frequency unit                     : cm-1
 output force constant unit                     : eV/A**2
 output         volume unit                     : A**3
 output   IR intensity unit                     : (D/A)**2/amu
 output         dipole unit                     : D
 output         efield unit                     : eV/A/e
 output        entropy unit                     : J/mol/K
  
 wavefunctions paging                           : none
 random number generator seed                   : randomised (220924851)
 data distribution                              : optimal for this architecture
 optimization strategy                          : maximize speed(+++)

 *********************** Exchange-Correlation Parameters ***********************
  
 using functional                               : Local Density Approximation
 Divergence correction                          : off
 DFT+D: Semi-empirical dispersion correction    : off

 ************************* Pseudopotential Parameters **************************
  
 pseudopotential representation                 : reciprocal space
 <beta|phi> representation                      : reciprocal space

 **************************** Basis Set Parameters *****************************
  
 plane wave basis set cut-off                   :   350.0000   eV
 size of standard grid                          :     2.0000
 size of   fine   gmax                          :    19.1691   1/A
 largest prime factor in FFT                    :          5
 finite basis set correction                    : automatic
 number of sample energies                      :          3
           sample  spacing                      :     5.0000   eV

 **************************** Electronic Parameters ****************************
  
 number of  electrons                           :  200.0    
 net charge of system                           :  0.000    
 net spin   of system                           :  0.000    
 number of  up  spins                           :  100.0    
 number of down spins                           :  100.0    
 treating system as non-spin-polarized
 number of bands                                :        120

 ********************* Electronic Minimization Parameters **********************
  
 Method: Treating system as metallic with density mixing treatment of electrons,
         and number of  SD  steps               :          1
         and number of  CG  steps               :          4
  
 total energy / atom convergence tol.           : 0.1000E-06   eV
 eigen-energy convergence tolerance             : 0.2700E-07   eV
 max force / atom convergence tol.              : ignored
 convergence tolerance window                   :          3   cycles
 max. number of SCF cycles                      :         60
 number of fixed-spin iterations                :         10
 smearing scheme                                : Gaussian
 smearing width                                 : 0.2000       eV
 Fermi energy convergence tolerance             : 0.2700E-08   eV
 periodic dipole correction                     : NONE

 ************************** Density Mixing Parameters **************************
  
 density-mixing scheme                          : Pulay
 max. length of mixing history                  :         30
 charge density mixing amplitude                : 0.8000    
 cut-off energy for mixing                      :  350.0       eV
 charge density mixing g-vector                 :  1.500       1/A

 *********************** Population Analysis Parameters ************************
  
 Population analysis with cutoff                :  3.000       A

 ********************** Geometry Optimization Parameters ***********************
  
 optimization method                            : BFGS
 variable cell method                           : fixed basis quality
 max. number of steps                           :         30
 estimated bulk modulus                         :  500.0       GPa
 estimated <frequency>                          :  1668.       cm-1
 geom line minimiser                            : on
 with line minimiser tolerance                  :     0.4000
 total energy convergence tolerance             : 0.2000E-04   eV/atom
        max ionic |force| tolerance             : 0.5000E-01   eV/A
 max ionic |displacement| tolerance             : 0.1000E-02   A
   max |stress component| tolerance             : 0.1000       GPa
 convergence tolerance window                   :          2   steps
 backup results every                           :          5   steps

 *******************************************************************************
  

                           -------------------------------
                                      Unit Cell
                           -------------------------------
        Real Lattice(A)                      Reciprocal Lattice(1/A)
   8.4000000   0.0000000   0.0000000        0.7479983   0.0000000   0.0000000
   0.0000000   8.4000000   0.0000000        0.0000000   0.7479983   0.0000000
   0.0000000   0.0000000   8.4000000        0.0000000   0.0000000   0.7479983

                       Lattice parameters(A)       Cell Angles
                    a =    8.400000          alpha =   90.000000
                    b =    8.400000          beta  =   90.000000
                    c =    8.400000          gamma =   90.000000

                       Current cell volume =  592.704000       A**3

                           -------------------------------
                                     Cell Contents
                           -------------------------------
                         Total number of ions in cell =   27
                      Total number of species in cell =    3
                        Max number of any one species =   13

            xxxxxxxxxxxxxxxxxxxxxxxxxxxxxxxxxxxxxxxxxxxxxxxxxxxxxxxxxxxx
            x  Element    Atom        Fractional coordinates of atoms  x
            x            Number           u          v          w      x
            x----------------------------------------------------------x
            x  O            1         0.375000   0.000000   0.000000   x
            x  O            2         0.000000   0.375000   0.000000   x
            x  O            3         0.750000   0.375000   0.000000   x
            x  O            4         0.375000   0.750000   0.000000   x
            x  O            5         0.000000   0.000000   0.375000   x
            x  O            6         0.750000   0.000000   0.375000   x
            x  O            7         0.375000   0.375000   0.375000   x
            x  O            8         0.000000   0.750000   0.375000   x
            x  O            9         0.750000   0.750000   0.375000   x
            x  O           10         0.375000   0.000000   0.750000   x
            x  O           11         0.000000   0.375000   0.750000   x
            x  O           12         0.750000   0.375000   0.750000   x
            x  O           13         0.375000   0.750000   0.750000   x
            x  Mg           1         0.000000   0.000000   0.000000   x
            x  Mg           2         0.750000   0.000000   0.000000   x
            x  Mg           3         0.375000   0.375000   0.000000   x
            x  Mg           4         0.000000   0.750000   0.000000   x
            x  Mg           5         0.750000   0.750000   0.000000   x
            x  Mg           6         0.375000   0.000000   0.375000   x
            x  Mg           7         0.000000   0.375000   0.375000   x
            x  Mg           8         0.750000   0.375000   0.375000   x
            x  Mg           9         0.375000   0.750000   0.375000   x
            x  Ca           1         0.000000   0.000000   0.750000   x
            x  Ca           2         0.750000   0.000000   0.750000   x
            x  Ca           3         0.375000   0.375000   0.750000   x
            x  Ca           4         0.000000   0.750000   0.750000   x
            x  Ca           5         0.750000   0.750000   0.750000   x
            xxxxxxxxxxxxxxxxxxxxxxxxxxxxxxxxxxxxxxxxxxxxxxxxxxxxxxxxxxxx


                         No user defined ionic velocities

                           -------------------------------
                                   Details of Species
                           -------------------------------

                               Mass of species in AMU
                                    O   15.9994000
                                    Mg   24.3050000
                                    Ca   40.0780000

                          Electric Quadrupole Moment (Barn)
                                    O   -0.0255800 Isotope 17
                                    Mg    0.1994000 Isotope 25
                                    Ca   -0.0408000 Isotope 43

                          Files used for pseudopotentials:
                                    O Pseudopotential generated on-the-fly
                                    Mg Pseudopotential generated on-the-fly
                                    Ca Pseudopotential generated on-the-fly

                           -------------------------------
                              k-Points For BZ Sampling
                           -------------------------------
                       MP grid size for SCF calculation is  3  3  3
                         Number of kpoints used =           6

             +++++++++++++++++++++++++++++++++++++++++++++++++++++++
             +  Number       Fractional coordinates        Weight  +
             +-----------------------------------------------------+
             +     1  -0.333333  -0.333333   0.000000   0.1481481  +
             +     2  -0.333333   0.000000  -0.333333   0.2962963  +
             +     3   0.000000   0.000000  -0.333333   0.0740741  +
             +     4   0.000000   0.000000   0.000000   0.0370370  +
             +     5   0.000000   0.333333   0.000000   0.1481481  +
             +     6   0.333333   0.333333  -0.333333   0.2962963  +
             +++++++++++++++++++++++++++++++++++++++++++++++++++++++

                           -------------------------------
                               Symmetry and Constraints
                           -------------------------------

                      Number of symmetry operations   =           8
                      Number of ionic constraints     =           3
                      Maximum deviation from symmetry =  0.00000         ANG
               Point group of crystal =    12: C4v, 4mm, 4 mm
           Set iprint > 1 for details on symmetry rotations/translations

                          Centre of mass is constrained
             Set iprint > 1 for details of linear ionic constraints

                         Number of cell constraints= 5
                         Cell constraints are:  1 1 1 0 0 0

                         External pressure/stress (GPa)
                          0.00000   0.00000   0.00000
                                    0.00000   0.00000
                                              0.00000
  
+---------------- MEMORY AND SCRATCH DISK ESTIMATES PER NODE -----------------+
|                                                     Memory          Disk    |
| Model and support data                              488.1 MB         0.0 MB |
| Electronic energy minimisation requirements         130.6 MB         0.0 MB |
|                                               ----------------------------- |
| Approx. total storage required per node             618.8 MB         0.0 MB |
|                                                                             |
| Requirements will fluctuate during execution and may exceed these estimates |
+-----------------------------------------------------------------------------+
Calculating finite basis set correction with  3 cut-off energies.
Calculating total energy with cut-off of  340.000eV.
------------------------------------------------------------------------ <-- SCF
SCF loop      Energy           Fermi           Energy gain       Timer   <-- SCF
                               energy          per atom          (sec)   <-- SCF
------------------------------------------------------------------------ <-- SCF
Initial  -1.72830350E+004  0.00000000E+000                        43.29  <-- SCF
      1  -1.89583726E+004  3.86319027E+000   6.20495403E+001     125.09  <-- SCF
      2  -1.98532003E+004 -7.48842033E-002   3.31417650E+001     176.10  <-- SCF
      3  -1.99183969E+004 -1.88431183E-001   2.41469006E+000     227.29  <-- SCF
      4  -1.99224698E+004  2.44448443E+000   1.50849360E-001     295.08  <-- SCF
      5  -1.99111882E+004  2.27005525E+000  -4.17837034E-001     359.04  <-- SCF
      6  -1.98984238E+004  1.57974498E+000  -4.72756172E-001     424.42  <-- SCF
      7  -1.98907346E+004  1.43491555E+000  -2.84784801E-001     486.11  <-- SCF
      8  -1.98905079E+004  1.54563408E+000  -8.39750361E-003     548.04  <-- SCF
      9  -1.98897370E+004  1.52917874E+000  -2.85510262E-002     607.88  <-- SCF
     10  -1.98895032E+004  1.46612451E+000  -8.65979957E-003     682.90  <-- SCF
     11  -1.98893687E+004  1.48593049E+000  -4.98186313E-003     764.37  <-- SCF
     12  -1.98893527E+004  1.48847103E+000  -5.93994769E-004     824.38  <-- SCF
     13  -1.98893518E+004  1.48415851E+000  -3.05622018E-005     949.62  <-- SCF
     14  -1.98893515E+004  1.48639697E+000  -1.38659741E-005    1018.14  <-- SCF
     15  -1.98893515E+004  1.48631495E+000   8.45239625E-007    1064.62  <-- SCF
     16  -1.98893514E+004  1.48647141E+000  -1.68930988E-006    1106.61  <-- SCF
     17  -1.98893514E+004  1.48629440E+000  -8.56248059E-008    1151.89  <-- SCF
     18  -1.98893514E+004  1.48627366E+000   1.29872915E-009    1188.47  <-- SCF
------------------------------------------------------------------------ <-- SCF
 
Final energy, E             =  -19888.84166687     eV
Final free energy (E-TS)    =  -19889.35144571     eV
(energies not corrected for finite basis set)
 
NB est. 0K energy (E-0.5TS)      =  -19889.09655629     eV
 
Calculating total energy with cut-off of  345.000eV.
------------------------------------------------------------------------ <-- SCF
SCF loop      Energy           Fermi           Energy gain       Timer   <-- SCF
                               energy          per atom          (sec)   <-- SCF
------------------------------------------------------------------------ <-- SCF
Initial  -1.98888417E+004  0.00000000E+000                      1233.50  <-- SCF
      1  -1.98910950E+004  1.46521241E+000   8.34555441E-002    1283.60  <-- SCF
      2  -1.98910988E+004  1.46519833E+000   1.41763719E-004    1338.85  <-- SCF
      3  -1.98912004E+004  1.52553059E+000   3.76431047E-003    1398.16  <-- SCF
      4  -1.98910956E+004  1.49012691E+000  -3.88354042E-003    1452.43  <-- SCF
      5  -1.98910936E+004  1.48568996E+000  -7.47629176E-005    1508.91  <-- SCF
      6  -1.98910933E+004  1.47812145E+000  -1.07332004E-005    1559.04  <-- SCF
      7  -1.98910926E+004  1.47903372E+000  -2.61652299E-005    1614.17  <-- SCF
      8  -1.98910919E+004  1.48353220E+000  -2.57208532E-005    1667.32  <-- SCF
      9  -1.98910921E+004  1.48369920E+000   1.00059387E-005    1716.60  <-- SCF
     10  -1.98910919E+004  1.48378017E+000  -8.66237435E-006    1764.96  <-- SCF
     11  -1.98910919E+004  1.48318235E+000  -8.09840291E-007    1813.10  <-- SCF
     12  -1.98910919E+004  1.48311425E+000   7.42034369E-009    1848.51  <-- SCF
     13  -1.98910919E+004  1.48316408E+000  -2.15390820E-008    1970.57  <-- SCF
------------------------------------------------------------------------ <-- SCF
 
Final energy, E             =  -19890.58057443     eV
Final free energy (E-TS)    =  -19891.09187797     eV
(energies not corrected for finite basis set)
 
NB est. 0K energy (E-0.5TS)      =  -19890.83622620     eV
 
Calculating total energy with cut-off of  350.000eV.
------------------------------------------------------------------------ <-- SCF
SCF loop      Energy           Fermi           Energy gain       Timer   <-- SCF
                               energy          per atom          (sec)   <-- SCF
------------------------------------------------------------------------ <-- SCF
Initial  -1.98905806E+004  0.00000000E+000                      2017.18  <-- SCF
      1  -1.98928831E+004  1.46234726E+000   8.52801050E-002    2056.67  <-- SCF
      2  -1.98928871E+004  1.46229808E+000   1.48023934E-004    2098.12  <-- SCF
      3  -1.98930275E+004  1.52969317E+000   5.19932297E-003    2143.75  <-- SCF
      4  -1.98928856E+004  1.48902078E+000  -5.25593809E-003    2189.80  <-- SCF
      5  -1.98928794E+004  1.48361087E+000  -2.28402303E-004    2239.36  <-- SCF
      6  -1.98928801E+004  1.47557115E+000   2.44582164E-005    2288.92  <-- SCF
      7  -1.98928796E+004  1.47671892E+000  -1.86725881E-005    2345.65  <-- SCF
      8  -1.98928789E+004  1.48110718E+000  -2.70911250E-005    2404.86  <-- SCF
      9  -1.98928790E+004  1.48121773E+000   6.40832605E-006    2504.13  <-- SCF
     10  -1.98928789E+004  1.48125687E+000  -3.07499109E-006    2550.97  <-- SCF
     11  -1.98928789E+004  1.48072052E+000  -1.94805923E-006    2593.59  <-- SCF
     12  -1.98928789E+004  1.48059530E+000   5.94347038E-008    2628.25  <-- SCF
     13  -1.98928789E+004  1.48065887E+000  -5.85499410E-008    2658.06  <-- SCF
------------------------------------------------------------------------ <-- SCF
 
Final energy, E             =  -19892.36410441     eV
Final free energy (E-TS)    =  -19892.87889610     eV
(energies not corrected for finite basis set)
 
NB est. 0K energy (E-0.5TS)      =  -19892.62150026     eV
 
 For future reference: finite basis dEtot/dlog(Ecut) =    -123.659311eV
 Total energy corrected for finite basis set =  -19892.869063 eV
 
+---------------- MEMORY AND SCRATCH DISK ESTIMATES PER NODE -----------------+
|                                                     Memory          Disk    |
| Model and support data                              488.1 MB         0.0 MB |
| Electronic energy minimisation requirements         130.6 MB         0.0 MB |
| Geometry minimisation requirements                  182.0 MB         0.0 MB |
|                                               ----------------------------- |
| Approx. total storage required per node             800.8 MB         0.0 MB |
|                                                                             |
| Requirements will fluctuate during execution and may exceed these estimates |
+-----------------------------------------------------------------------------+
 

 *********************************** Forces ***********************************
 *                                                                            *
 *                        Cartesian components (eV/A)                         *
 * -------------------------------------------------------------------------- *
 *                   x                    y                    z              *
 *                                                                            *
 * O         1      0.00000             -0.48469             -1.07333         *
 * O         2     -0.48469             -0.00000             -1.07333         *
 * O         3      0.48469              0.00000             -1.07333         *
 * O         4     -0.00000              0.48469             -1.07333         *
 * O         5     -0.78366             -0.78366              0.24195         *
 * O         6      0.78366             -0.78366              0.24195         *
 * O         7      0.00000              0.00000              0.45686         *
 * O         8     -0.78366              0.78366              0.24195         *
 * O         9      0.78366              0.78366              0.24195         *
 * O        10     -0.00000              0.03411              0.84426         *
 * O        11      0.03411             -0.00000              0.84426         *
 * O        12     -0.03411             -0.00000              0.84426         *
 * O        13      0.00000             -0.03411              0.84426         *
 * Mg        1      5.96129              5.96129              6.20726         *
 * Mg        2     -5.96129              5.96129              6.20726         *
 * Mg        3      0.00000              0.00000              8.76235         *
 * Mg        4      5.96129             -5.96129              6.20726         *
 * Mg        5     -5.96129             -5.96129              6.20726         *
 * Mg        6     -0.00000              6.34331             -0.05700         *
 * Mg        7      6.34331              0.00000             -0.05700         *
 * Mg        8     -6.34331              0.00000             -0.05700         *
 * Mg        9     -0.00000             -6.34331             -0.05700         *
 * Ca        1      5.67567              5.67567             -6.26471         *
 * Ca        2     -5.67567              5.67567             -6.26471         *
 * Ca        3      0.00000              0.00000             -8.81292         *
 * Ca        4      5.67567             -5.67567             -6.26471         *
 * Ca        5     -5.67567             -5.67567             -6.26471         *
 *                                                                            *
 ******************************************************************************

 ***************** Stress Tensor *****************
 *                                               *
 *          Cartesian components (GPa)           *
 * --------------------------------------------- *
 *             x             y             z     *
 *                                               *
 *  x     -1.395184      0.000000      0.000000  *
 *  y      0.000000     -1.395184      0.000000  *
 *  z      0.000000      0.000000     -3.259480  *
 *                                               *
 *  Pressure:    2.0166                          *
 *                                               *
 *************************************************

 *********** Constrained Stress Tensor ***********
 *                                               *
 *          Cartesian components (GPa)           *
 * --------------------------------------------- *
 *             x             y             z     *
 *                                               *
 *  x     -2.009897      0.000000      0.000000  *
 *  y      0.000000     -2.009897      0.000000  *
 *  z      0.000000      0.000000     -2.009897  *
 *                                               *
 *  Pressure:    2.0099                          *
 *                                               *
 *************************************************
 BFGS: finished iteration     0 with enthalpy= -1.98928691E+004 eV
  
 +-----------+-----------------+-----------------+------------+-----+ <-- BFGS
 | Parameter |      value      |    tolerance    |    units   | OK? | <-- BFGS
 +-----------+-----------------+-----------------+------------+-----+ <-- BFGS
 |  dE/ion   |   0.000000E+000 |   2.000000E-005 |         eV | No  | <-- BFGS
 |  |F|max   |   1.046919E+001 |   5.000000E-002 |       eV/A | No  | <-- BFGS
 |  |dR|max  |   0.000000E+000 |   1.000000E-003 |          A | No  | <-- BFGS
 |   Smax    |   2.015301E+000 |   1.000000E-001 |        GPa | No  | <-- BFGS
 +-----------+-----------------+-----------------+------------+-----+ <-- BFGS
  

================================================================================
 Starting BFGS iteration          1 ...
================================================================================
  
 +------------+-------------+-------------+-----------------+ <-- min BFGS
 |    Step    |   lambda    |   F.delta   |    enthalpy     | <-- min BFGS
 +------------+-------------+-------------+-----------------+ <-- min BFGS
 |  previous  |    0.000000 |    0.183973 |   -19892.869063 | <-- min BFGS
 +------------+-------------+-------------+-----------------+ <-- min BFGS
  

--------------------------------------------------------------------------------
 BFGS: starting iteration         1 with trial guess (lambda=  1.000000)
--------------------------------------------------------------------------------
 
+---------------- MEMORY AND SCRATCH DISK ESTIMATES PER NODE -----------------+
|                                                     Memory          Disk    |
| Model and support data                              488.8 MB         0.0 MB |
| Electronic energy minimisation requirements         131.4 MB         0.0 MB |
| Geometry minimisation requirements                  183.2 MB         0.0 MB |
|                                               ----------------------------- |
| Approx. total storage required per node             803.4 MB         0.0 MB |
|                                                                             |
| Requirements will fluctuate during execution and may exceed these estimates |
+-----------------------------------------------------------------------------+
 

                           -------------------------------
                                      Unit Cell
                           -------------------------------
        Real Lattice(A)              Reciprocal Lattice(1/A)
   8.4112857   0.0000000   0.0000000        0.7469946   0.0000000   0.0000000
   0.0000000   8.4112857   0.0000000        0.0000000   0.7469946   0.0000000
   0.0000000   0.0000000   8.4112857        0.0000000   0.0000000   0.7469946

                       Lattice parameters(A)       Cell Angles
                    a =    8.411286          alpha =   90.000000
                    b =    8.411286          beta  =   90.000000
                    c =    8.411286          gamma =   90.000000

                Current cell volume =  595.096165 A**3

                           -------------------------------
                                     Cell Contents
                           -------------------------------

            xxxxxxxxxxxxxxxxxxxxxxxxxxxxxxxxxxxxxxxxxxxxxxxxxxxxxxxxxxxx
            x  Element    Atom        Fractional coordinates of atoms  x
            x            Number           u          v          w      x
            x----------------------------------------------------------x
            x  O            1         0.375000  -0.000243  -0.000538   x
            x  O            2        -0.000243   0.375000  -0.000538   x
            x  O            3         0.750243   0.375000  -0.000538   x
            x  O            4         0.375000   0.750243  -0.000538   x
            x  O            5        -0.000393  -0.000393   0.375121   x
            x  O            6         0.750393  -0.000393   0.375121   x
            x  O            7         0.375000   0.375000   0.375229   x
            x  O            8        -0.000393   0.750393   0.375121   x
            x  O            9         0.750393   0.750393   0.375121   x
            x  O           10         0.375000   0.000017   0.750423   x
            x  O           11         0.000017   0.375000   0.750423   x
            x  O           12         0.749983   0.375000   0.750423   x
            x  O           13         0.375000   0.749983   0.750423   x
            x  Mg           1         0.002987   0.002987   0.003110   x
            x  Mg           2         0.747013   0.002987   0.003110   x
            x  Mg           3         0.375000   0.375000   0.004390   x
            x  Mg           4         0.002987   0.747013   0.003110   x
            x  Mg           5         0.747013   0.747013   0.003110   x
            x  Mg           6         0.375000   0.003178   0.374971   x
            x  Mg           7         0.003178   0.375000   0.374971   x
            x  Mg           8         0.746822   0.375000   0.374971   x
            x  Mg           9         0.375000   0.746822   0.374971   x
            x  Ca           1         0.002844   0.002844   0.746861   x
            x  Ca           2         0.747156   0.002844   0.746861   x
            x  Ca           3         0.375000   0.375000   0.745584   x
            x  Ca           4         0.002844   0.747156   0.746861   x
            x  Ca           5         0.747156   0.747156   0.746861   x
            xxxxxxxxxxxxxxxxxxxxxxxxxxxxxxxxxxxxxxxxxxxxxxxxxxxxxxxxxxxx


------------------------------------------------------------------------ <-- SCF
SCF loop      Energy           Fermi           Energy gain       Timer   <-- SCF
                               energy          per atom          (sec)   <-- SCF
------------------------------------------------------------------------ <-- SCF
Initial  -1.98807514E+004  0.00000000E+000                      2872.11  <-- SCF
      1  -1.99307853E+004  1.58575329E+000   1.85310739E+000    2920.21  <-- SCF
      2  -1.99310693E+004  1.58472654E+000   1.05185179E-002    2989.81  <-- SCF
      3  -1.99893300E+004  2.98089753E+000   2.15780171E+000    3075.70  <-- SCF
      4  -1.98977229E+004  1.72584408E+000  -3.39285655E+000    3292.50  <-- SCF
      5  -1.99063175E+004  1.57745645E+000   3.18321309E-001    3334.28  <-- SCF
      6  -1.99079259E+004  1.47930263E+000   5.95700811E-002    3465.65  <-- SCF
      7  -1.98981696E+004  1.60780104E+000  -3.61345959E-001    3600.44  <-- SCF
      8  -1.98979582E+004  1.58775006E+000  -7.82988879E-003    3667.03  <-- SCF
      9  -1.98977351E+004  1.57880431E+000  -8.26099640E-003    3739.20  <-- SCF
     10  -1.98977677E+004  1.54045995E+000   1.20504078E-003    3795.64  <-- SCF
     11  -1.98976279E+004  1.52673317E+000  -5.17694292E-003    3942.79  <-- SCF
     12  -1.98976226E+004  1.54367961E+000  -1.94974542E-004    4034.25  <-- SCF
     13  -1.98976217E+004  1.53230903E+000  -3.61812056E-005    4093.01  <-- SCF
     14  -1.98976214E+004  1.53676966E+000  -8.34744714E-006    4148.16  <-- SCF
     15  -1.98976214E+004  1.53618665E+000  -7.44761643E-007    4203.95  <-- SCF
     16  -1.98976214E+004  1.53652835E+000  -4.18261938E-007    4342.28  <-- SCF
     17  -1.98976214E+004  1.53644797E+000  -4.24931344E-009    4486.85  <-- SCF
     18  -1.98976214E+004  1.53646551E+000  -4.47823809E-009    4554.47  <-- SCF
------------------------------------------------------------------------ <-- SCF
 
Final energy, E             =  -19897.12111040     eV
Final free energy (E-TS)    =  -19897.62140200     eV
(energies not corrected for finite basis set)
 
NB est. 0K energy (E-0.5TS)      =  -19897.37125620     eV
 

 *********************************** Forces ***********************************
 *                                                                            *
 *                        Cartesian components (eV/A)                         *
 * -------------------------------------------------------------------------- *
 *                   x                    y                    z              *
 *                                                                            *
 * O         1      0.00000             -0.48769             -1.02430         *
 * O         2     -0.48769              0.00000             -1.02430         *
 * O         3      0.48769             -0.00000             -1.02430         *
 * O         4     -0.00000              0.48769             -1.02430         *
 * O         5     -0.70090             -0.70090              0.26104         *
 * O         6      0.70090             -0.70090              0.26104         *
 * O         7      0.00000              0.00000              0.45070         *
 * O         8     -0.70090              0.70090              0.26104         *
 * O         9      0.70090              0.70090              0.26104         *
 * O        10     -0.00000              0.13415              0.78063         *
 * O        11      0.13415              0.00000              0.78063         *
 * O        12     -0.13415             -0.00000              0.78063         *
 * O        13      0.00000             -0.13415              0.78063         *
 * Mg        1      5.22758              5.22758              5.68138         *
 * Mg        2     -5.22758              5.22758              5.68138         *
 * Mg        3      0.00000              0.00000              7.62609         *
 * Mg        4      5.22758             -5.22758              5.68138         *
 * Mg        5     -5.22758             -5.22758              5.68138         *
 * Mg        6      0.00000              5.54113             -0.05276         *
 * Mg        7      5.54113              0.00000             -0.05276         *
 * Mg        8     -5.54113              0.00000             -0.05276         *
 * Mg        9      0.00000             -5.54113             -0.05276         *
 * Ca        1      4.98442              4.98442             -5.75024         *
 * Ca        2     -4.98442              4.98442             -5.75024         *
 * Ca        3      0.00000              0.00000             -7.65979         *
 * Ca        4      4.98442             -4.98442             -5.75024         *
 * Ca        5     -4.98442             -4.98442             -5.75024         *
 *                                                                            *
 ******************************************************************************

 ***************** Stress Tensor *****************
 *                                               *
 *          Cartesian components (GPa)           *
 * --------------------------------------------- *
 *             x             y             z     *
 *                                               *
 *  x      0.341612      0.000000      0.000000  *
 *  y      0.000000      0.341612      0.000000  *
 *  z      0.000000      0.000000     -1.760324  *
 *                                               *
 *  Pressure:    0.3590                          *
 *                                               *
 *************************************************

 *********** Constrained Stress Tensor ***********
 *                                               *
 *          Cartesian components (GPa)           *
 * --------------------------------------------- *
 *             x             y             z     *
 *                                               *
 *  x     -0.357193      0.000000      0.000000  *
 *  y      0.000000     -0.357193      0.000000  *
 *  z      0.000000      0.000000     -0.357193  *
 *                                               *
 *  Pressure:    0.3572                          *
 *                                               *
 *************************************************
  
 +------------+-------------+-------------+-----------------+ <-- min BFGS
 |    Step    |   lambda    |   F.delta   |    enthalpy     | <-- min BFGS
 +------------+-------------+-------------+-----------------+ <-- min BFGS
 |  previous  |    0.000000 |    0.183973 |   -19892.869063 | <-- min BFGS
 | trial step |    1.000000 |    0.162601 |   -19897.554292 | <-- min BFGS
 +------------+-------------+-------------+-----------------+ <-- min BFGS
  
 BFGS: finished iteration     1 with enthalpy= -1.98975543E+004 eV
  
 +-----------+-----------------+-----------------+------------+-----+ <-- BFGS
 | Parameter |      value      |    tolerance    |    units   | OK? | <-- BFGS
 +-----------+-----------------+-----------------+------------+-----+ <-- BFGS
 |  dE/ion   |   1.735270E-001 |   2.000000E-005 |         eV | No  | <-- BFGS
 |  |F|max   |   9.323804E+000 |   5.000000E-002 |       eV/A | No  | <-- BFGS
 |  |dR|max  |   4.412308E-002 |   1.000000E-003 |          A | No  | <-- BFGS
 |   Smax    |   3.573631E-001 |   1.000000E-001 |        GPa | No  | <-- BFGS
 +-----------+-----------------+-----------------+------------+-----+ <-- BFGS
  

================================================================================
 Starting BFGS iteration          2 ...
================================================================================
  
 +------------+-------------+-------------+-----------------+ <-- min BFGS
 |    Step    |   lambda    |   F.delta   |    enthalpy     | <-- min BFGS
 +------------+-------------+-------------+-----------------+ <-- min BFGS
 |  previous  |    0.000000 |    0.144342 |   -19897.554292 | <-- min BFGS
 +------------+-------------+-------------+-----------------+ <-- min BFGS
  

--------------------------------------------------------------------------------
 BFGS: starting iteration         2 with trial guess (lambda=  1.000000)
--------------------------------------------------------------------------------

                           -------------------------------
                                      Unit Cell
                           -------------------------------
        Real Lattice(A)              Reciprocal Lattice(1/A)
   8.4132923   0.0000000   0.0000000        0.7468165   0.0000000   0.0000000
   0.0000000   8.4132923   0.0000000        0.0000000   0.7468165   0.0000000
   0.0000000   0.0000000   8.4132923        0.0000000   0.0000000   0.7468165

                       Lattice parameters(A)       Cell Angles
                    a =    8.413292          alpha =   90.000000
                    b =    8.413292          beta  =   90.000000
                    c =    8.413292          gamma =   90.000000

                Current cell volume =  595.522169 A**3

                           -------------------------------
                                     Cell Contents
                           -------------------------------

            xxxxxxxxxxxxxxxxxxxxxxxxxxxxxxxxxxxxxxxxxxxxxxxxxxxxxxxxxxxx
            x  Element    Atom        Fractional coordinates of atoms  x
            x            Number           u          v          w      x
            x----------------------------------------------------------x
            x  O            1         0.375000  -0.000488  -0.001052   x
            x  O            2        -0.000488   0.375000  -0.001052   x
            x  O            3         0.750488   0.375000  -0.001052   x
            x  O            4         0.375000   0.750488  -0.001052   x
            x  O            5        -0.000744  -0.000744   0.375252   x
            x  O            6         0.750744  -0.000744   0.375252   x
            x  O            7         0.375000   0.375000   0.375455   x
            x  O            8        -0.000744   0.750744   0.375252   x
            x  O            9         0.750744   0.750744   0.375252   x
            x  O           10         0.375000   0.000084   0.750815   x
            x  O           11         0.000084   0.375000   0.750815   x
            x  O           12         0.749916   0.375000   0.750815   x
            x  O           13         0.375000   0.749916   0.750815   x
            x  Mg           1         0.005610   0.005610   0.005961   x
            x  Mg           2         0.744390   0.005610   0.005961   x
            x  Mg           3         0.375000   0.375000   0.008217   x
            x  Mg           4         0.005610   0.744390   0.005961   x
            x  Mg           5         0.744390   0.744390   0.005961   x
            x  Mg           6         0.375000   0.005959   0.374945   x
            x  Mg           7         0.005959   0.375000   0.374945   x
            x  Mg           8         0.744041   0.375000   0.374945   x
            x  Mg           9         0.375000   0.744041   0.374945   x
            x  Ca           1         0.005345   0.005345   0.743976   x
            x  Ca           2         0.744655   0.005345   0.743976   x
            x  Ca           3         0.375000   0.375000   0.741741   x
            x  Ca           4         0.005345   0.744655   0.743976   x
            x  Ca           5         0.744655   0.744655   0.743976   x
            xxxxxxxxxxxxxxxxxxxxxxxxxxxxxxxxxxxxxxxxxxxxxxxxxxxxxxxxxxxx


------------------------------------------------------------------------ <-- SCF
SCF loop      Energy           Fermi           Energy gain       Timer   <-- SCF
                               energy          per atom          (sec)   <-- SCF
------------------------------------------------------------------------ <-- SCF
Initial  -1.98882741E+004  0.00000000E+000                      4765.34  <-- SCF
      1  -1.99273289E+004  1.74805068E+000   1.44647256E+000    4808.82  <-- SCF
      2  -1.99275792E+004  1.74724583E+000   9.27341858E-003    4856.82  <-- SCF
      3  -1.99830186E+004  2.89013218E+000   2.05330782E+000    4905.13  <-- SCF
      4  -1.99019584E+004  1.79078908E+000  -3.00222887E+000    4961.09  <-- SCF
      5  -1.99092631E+004  1.57941353E+000   2.70545285E-001    5008.26  <-- SCF
      6  -1.99101912E+004  1.54181813E+000   3.43742817E-002    5289.23  <-- SCF
      7  -1.99018170E+004  1.69010498E+000  -3.10156650E-001    5384.56  <-- SCF
      8  -1.99016881E+004  1.66257286E+000  -4.77337624E-003    5583.23  <-- SCF
      9  -1.99014967E+004  1.65047566E+000  -7.08691386E-003    5638.50  <-- SCF
     10  -1.99015586E+004  1.63327864E+000   2.29050653E-003    5689.71  <-- SCF
     11  -1.99013912E+004  1.61029033E+000  -6.19945234E-003    5752.31  <-- SCF
     12  -1.99013896E+004  1.60974137E+000  -5.99108559E-005    5808.41  <-- SCF
     13  -1.99013891E+004  1.60671469E+000  -1.96663390E-005    5870.89  <-- SCF
     14  -1.99013889E+004  1.61089147E+000  -4.42503270E-006    5966.55  <-- SCF
     15  -1.99013889E+004  1.60907014E+000  -7.58949586E-007    6023.63  <-- SCF
     16  -1.99013889E+004  1.60964994E+000  -3.72498664E-008    6063.92  <-- SCF
     17  -1.99013889E+004  1.60966426E+000  -7.18511732E-010    6119.96  <-- SCF
------------------------------------------------------------------------ <-- SCF
 
Final energy, E             =  -19900.90728362     eV
Final free energy (E-TS)    =  -19901.38891474     eV
(energies not corrected for finite basis set)
 
NB est. 0K energy (E-0.5TS)      =  -19901.14809918     eV
 

 *********************************** Forces ***********************************
 *                                                                            *
 *                        Cartesian components (eV/A)                         *
 * -------------------------------------------------------------------------- *
 *                   x                    y                    z              *
 *                                                                            *
 * O         1      0.00000             -0.45586             -0.95678         *
 * O         2     -0.45586             -0.00000             -0.95678         *
 * O         3      0.45586              0.00000             -0.95678         *
 * O         4      0.00000              0.45586             -0.95678         *
 * O         5     -0.60446             -0.60446              0.27395         *
 * O         6      0.60446             -0.60446              0.27395         *
 * O         7      0.00000              0.00000              0.44507         *
 * O         8     -0.60446              0.60446              0.27395         *
 * O         9      0.60446              0.60446              0.27395         *
 * O        10      0.00000              0.24215              0.70152         *
 * O        11      0.24215              0.00000              0.70152         *
 * O        12     -0.24215              0.00000              0.70152         *
 * O        13      0.00000             -0.24215              0.70152         *
 * Mg        1      4.68293              4.68293              5.25104         *
 * Mg        2     -4.68293              4.68293              5.25104         *
 * Mg        3      0.00000              0.00000              6.76736         *
 * Mg        4      4.68293             -4.68293              5.25104         *
 * Mg        5     -4.68293             -4.68293              5.25104         *
 * Mg        6      0.00000              4.93956             -0.04946         *
 * Mg        7      4.93956              0.00000             -0.04946         *
 * Mg        8     -4.93956             -0.00000             -0.04946         *
 * Mg        9     -0.00000             -4.93956             -0.04946         *
 * Ca        1      4.52896              4.52896             -5.32865         *
 * Ca        2     -4.52896              4.52896             -5.32865         *
 * Ca        3      0.00000              0.00000             -6.77893         *
 * Ca        4      4.52896             -4.52896             -5.32865         *
 * Ca        5     -4.52896             -4.52896             -5.32865         *
 *                                                                            *
 ******************************************************************************

 ***************** Stress Tensor *****************
 *                                               *
 *          Cartesian components (GPa)           *
 * --------------------------------------------- *
 *             x             y             z     *
 *                                               *
 *  x      1.632462      0.000000      0.000000  *
 *  y      0.000000      1.632462      0.000000  *
 *  z      0.000000      0.000000     -0.503076  *
 *                                               *
 *  Pressure:   -0.9206                          *
 *                                               *
 *************************************************

 *********** Constrained Stress Tensor ***********
 *                                               *
 *          Cartesian components (GPa)           *
 * --------------------------------------------- *
 *             x             y             z     *
 *                                               *
 *  x      0.923474      0.000000      0.000000  *
 *  y      0.000000      0.923474      0.000000  *
 *  z      0.000000      0.000000      0.923474  *
 *                                               *
 *  Pressure:   -0.9235                          *
 *                                               *
 *************************************************
  
 +------------+-------------+-------------+-----------------+ <-- min BFGS
 |    Step    |   lambda    |   F.delta   |    enthalpy     | <-- min BFGS
 +------------+-------------+-------------+-----------------+ <-- min BFGS
 |  previous  |    0.000000 |    0.144342 |   -19897.554292 | <-- min BFGS
 | trial step |    1.000000 |    0.130584 |   -19901.281368 | <-- min BFGS
 +------------+-------------+-------------+-----------------+ <-- min BFGS
  
 BFGS: finished iteration     2 with enthalpy= -1.99012814E+004 eV
  
 +-----------+-----------------+-----------------+------------+-----+ <-- BFGS
 | Parameter |      value      |    tolerance    |    units   | OK? | <-- BFGS
 +-----------+-----------------+-----------------+------------+-----+ <-- BFGS
 |  dE/ion   |   1.380399E-001 |   2.000000E-005 |         eV | No  | <-- BFGS
 |  |F|max   |   8.451815E+000 |   5.000000E-002 |       eV/A | No  | <-- BFGS
 |  |dR|max  |   3.935796E-002 |   1.000000E-003 |          A | No  | <-- BFGS
 |   Smax    |   9.223372E-001 |   1.000000E-001 |        GPa | No  | <-- BFGS
 +-----------+-----------------+-----------------+------------+-----+ <-- BFGS
  

================================================================================
 Starting BFGS iteration          3 ...
================================================================================
  
 +------------+-------------+-------------+-----------------+ <-- min BFGS
 |    Step    |   lambda    |   F.delta   |    enthalpy     | <-- min BFGS
 +------------+-------------+-------------+-----------------+ <-- min BFGS
 |  previous  |    0.000000 |    0.118604 |   -19901.281368 | <-- min BFGS
 +------------+-------------+-------------+-----------------+ <-- min BFGS
  

--------------------------------------------------------------------------------
 BFGS: starting iteration         3 with trial guess (lambda=  1.000000)
--------------------------------------------------------------------------------

                           -------------------------------
                                      Unit Cell
                           -------------------------------
        Real Lattice(A)              Reciprocal Lattice(1/A)
   8.4081109   0.0000000   0.0000000        0.7472767   0.0000000   0.0000000
   0.0000000   8.4081109   0.0000000        0.0000000   0.7472767   0.0000000
   0.0000000   0.0000000   8.4081109        0.0000000   0.0000000   0.7472767

                       Lattice parameters(A)       Cell Angles
                    a =    8.408111          alpha =   90.000000
                    b =    8.408111          beta  =   90.000000
                    c =    8.408111          gamma =   90.000000

                Current cell volume =  594.422564 A**3

                           -------------------------------
                                     Cell Contents
                           -------------------------------

            xxxxxxxxxxxxxxxxxxxxxxxxxxxxxxxxxxxxxxxxxxxxxxxxxxxxxxxxxxxx
            x  Element    Atom        Fractional coordinates of atoms  x
            x            Number           u          v          w      x
            x----------------------------------------------------------x
            x  O            1         0.375000  -0.000716  -0.001532   x
            x  O            2        -0.000716   0.375000  -0.001532   x
            x  O            3         0.750716   0.375000  -0.001532   x
            x  O            4         0.375000   0.750716  -0.001532   x
            x  O            5        -0.001048  -0.001048   0.375390   x
            x  O            6         0.751048  -0.001048   0.375390   x
            x  O            7         0.375000   0.375000   0.375678   x
            x  O            8        -0.001048   0.751048   0.375390   x
            x  O            9         0.751048   0.751048   0.375390   x
            x  O           10         0.375000   0.000206   0.751167   x
            x  O           11         0.000206   0.375000   0.751167   x
            x  O           12         0.749794   0.375000   0.751167   x
            x  O           13         0.375000   0.749794   0.751167   x
            x  Mg           1         0.007960   0.007960   0.008596   x
            x  Mg           2         0.742040   0.007960   0.008596   x
            x  Mg           3         0.375000   0.375000   0.011613   x
            x  Mg           4         0.007960   0.742040   0.008596   x
            x  Mg           5         0.742040   0.742040   0.008596   x
            x  Mg           6         0.375000   0.008437   0.374920   x
            x  Mg           7         0.008437   0.375000   0.374920   x
            x  Mg           8         0.741563   0.375000   0.374920   x
            x  Mg           9         0.375000   0.741563   0.374920   x
            x  Ca           1         0.007618   0.007618   0.741302   x
            x  Ca           2         0.742382   0.007618   0.741302   x
            x  Ca           3         0.375000   0.375000   0.738339   x
            x  Ca           4         0.007618   0.742382   0.741302   x
            x  Ca           5         0.742382   0.742382   0.741302   x
            xxxxxxxxxxxxxxxxxxxxxxxxxxxxxxxxxxxxxxxxxxxxxxxxxxxxxxxxxxxx


------------------------------------------------------------------------ <-- SCF
SCF loop      Energy           Fermi           Energy gain       Timer   <-- SCF
                               energy          per atom          (sec)   <-- SCF
------------------------------------------------------------------------ <-- SCF
Initial  -1.98935801E+004  0.00000000E+000                      6331.71  <-- SCF
      1  -1.99253832E+004  1.89421158E+000   1.17789165E+000    6382.08  <-- SCF
      2  -1.99255936E+004  1.89311064E+000   7.79508116E-003    6445.37  <-- SCF
      3  -1.99757356E+004  2.84593292E+000   1.85711165E+000    6530.94  <-- SCF
      4  -1.99058981E+004  1.76225847E+000  -2.58657590E+000    6601.52  <-- SCF
      5  -1.99096000E+004  1.70292481E+000   1.37109716E-001    6685.84  <-- SCF
      6  -1.99045014E+004  1.73939628E+000  -1.88838977E-001    6738.79  <-- SCF
      7  -1.99046122E+004  1.72251129E+000   4.10323338E-003    6793.38  <-- SCF
      8  -1.99044710E+004  1.71618483E+000  -5.22764729E-003    6844.30  <-- SCF
      9  -1.99044806E+004  1.70735880E+000   3.55480187E-004    6895.62  <-- SCF
     10  -1.99043563E+004  1.69466914E+000  -4.60460881E-003    6945.94  <-- SCF
     11  -1.99043520E+004  1.68902090E+000  -1.61238077E-004    6995.94  <-- SCF
     12  -1.99043516E+004  1.69378617E+000  -1.44726242E-005    7041.83  <-- SCF
     13  -1.99043515E+004  1.69074409E+000  -1.31469991E-006    7096.30  <-- SCF
     14  -1.99043515E+004  1.69208804E+000  -1.20609476E-006    7147.93  <-- SCF
     15  -1.99043515E+004  1.69189957E+000  -4.85747616E-008    7175.57  <-- SCF
     16  -1.99043515E+004  1.69193187E+000   6.47554259E-009    7199.85  <-- SCF
------------------------------------------------------------------------ <-- SCF
 
Final energy, E             =  -19903.88529054     eV
Final free energy (E-TS)    =  -19904.35149502     eV
(energies not corrected for finite basis set)
 
NB est. 0K energy (E-0.5TS)      =  -19904.11839278     eV
 

 *********************************** Forces ***********************************
 *                                                                            *
 *                        Cartesian components (eV/A)                         *
 * -------------------------------------------------------------------------- *
 *                   x                    y                    z              *
 *                                                                            *
 * O         1      0.00000             -0.40699             -0.88157         *
 * O         2     -0.40699              0.00000             -0.88157         *
 * O         3      0.40699              0.00000             -0.88157         *
 * O         4      0.00000              0.40699             -0.88157         *
 * O         5     -0.50042             -0.50042              0.28484         *
 * O         6      0.50042             -0.50042              0.28484         *
 * O         7      0.00000              0.00000              0.43646         *
 * O         8     -0.50042              0.50042              0.28484         *
 * O         9      0.50042              0.50042              0.28484         *
 * O        10      0.00000              0.34942              0.61382         *
 * O        11      0.34942             -0.00000              0.61382         *
 * O        12     -0.34942              0.00000              0.61382         *
 * O        13      0.00000             -0.34942              0.61382         *
 * Mg        1      4.26736              4.26736              4.89759         *
 * Mg        2     -4.26736              4.26736              4.89759         *
 * Mg        3      0.00000              0.00000              6.10319         *
 * Mg        4      4.26736             -4.26736              4.89759         *
 * Mg        5     -4.26736             -4.26736              4.89759         *
 * Mg        6      0.00000              4.47783             -0.04600         *
 * Mg        7      4.47783              0.00000             -0.04600         *
 * Mg        8     -4.47783              0.00000             -0.04600         *
 * Mg        9     -0.00000             -4.47783             -0.04600         *
 * Ca        1      4.22282              4.22282             -4.98120         *
 * Ca        2     -4.22282              4.22282             -4.98120         *
 * Ca        3      0.00000              0.00000             -6.08961         *
 * Ca        4      4.22282             -4.22282             -4.98120         *
 * Ca        5     -4.22282             -4.22282             -4.98120         *
 *                                                                            *
 ******************************************************************************

 ***************** Stress Tensor *****************
 *                                               *
 *          Cartesian components (GPa)           *
 * --------------------------------------------- *
 *             x             y             z     *
 *                                               *
 *  x      2.755559      0.000000      0.000000  *
 *  y      0.000000      2.755559      0.000000  *
 *  z      0.000000      0.000000      0.702997  *
 *                                               *
 *  Pressure:   -2.0714                          *
 *                                               *
 *************************************************

 *********** Constrained Stress Tensor ***********
 *                                               *
 *          Cartesian components (GPa)           *
 * --------------------------------------------- *
 *             x             y             z     *
 *                                               *
 *  x      2.078705      0.000000      0.000000  *
 *  y      0.000000      2.078705      0.000000  *
 *  z      0.000000      0.000000      2.078705  *
 *                                               *
 *  Pressure:   -2.0787                          *
 *                                               *
 *************************************************
  
 +------------+-------------+-------------+-----------------+ <-- min BFGS
 |    Step    |   lambda    |   F.delta   |    enthalpy     | <-- min BFGS
 +------------+-------------+-------------+-----------------+ <-- min BFGS
 |  previous  |    0.000000 |    0.118604 |   -19901.281368 | <-- min BFGS
 | trial step |    1.000000 |    0.109394 |   -19904.405913 | <-- min BFGS
 +------------+-------------+-------------+-----------------+ <-- min BFGS
  
 BFGS: finished iteration     3 with enthalpy= -1.99044059E+004 eV
  
 +-----------+-----------------+-----------------+------------+-----+ <-- BFGS
 | Parameter |      value      |    tolerance    |    units   | OK? | <-- BFGS
 +-----------+-----------------+-----------------+------------+-----+ <-- BFGS
 |  dE/ion   |   1.157239E-001 |   2.000000E-005 |         eV | No  | <-- BFGS
 |  |F|max   |   7.776676E+000 |   5.000000E-002 |       eV/A | No  | <-- BFGS
 |  |dR|max  |   3.566363E-002 |   1.000000E-003 |          A | No  | <-- BFGS
 |   Smax    |   2.072958E+000 |   1.000000E-001 |        GPa | No  | <-- BFGS
 +-----------+-----------------+-----------------+------------+-----+ <-- BFGS
  

================================================================================
 Starting BFGS iteration          4 ...
================================================================================
  
 +------------+-------------+-------------+-----------------+ <-- min BFGS
 |    Step    |   lambda    |   F.delta   |    enthalpy     | <-- min BFGS
 +------------+-------------+-------------+-----------------+ <-- min BFGS
 |  previous  |    0.000000 |    0.101342 |   -19904.405913 | <-- min BFGS
 +------------+-------------+-------------+-----------------+ <-- min BFGS
  

--------------------------------------------------------------------------------
 BFGS: starting iteration         4 with trial guess (lambda=  1.000000)
--------------------------------------------------------------------------------

                           -------------------------------
                                      Unit Cell
                           -------------------------------
        Real Lattice(A)              Reciprocal Lattice(1/A)
   8.3964799   0.0000000   0.0000000        0.7483118   0.0000000   0.0000000
   0.0000000   8.3964799   0.0000000        0.0000000   0.7483118   0.0000000
   0.0000000   0.0000000   8.3964799        0.0000000   0.0000000   0.7483118

                       Lattice parameters(A)       Cell Angles
                    a =    8.396480          alpha =   90.000000
                    b =    8.396480          beta  =   90.000000
                    c =    8.396480          gamma =   90.000000

                Current cell volume =  591.959169 A**3

                           -------------------------------
                                     Cell Contents
                           -------------------------------

            xxxxxxxxxxxxxxxxxxxxxxxxxxxxxxxxxxxxxxxxxxxxxxxxxxxxxxxxxxxx
            x  Element    Atom        Fractional coordinates of atoms  x
            x            Number           u          v          w      x
            x----------------------------------------------------------x
            x  O            1         0.375000  -0.000920  -0.001974   x
            x  O            2        -0.000920   0.375000  -0.001974   x
            x  O            3         0.750920   0.375000  -0.001974   x
            x  O            4         0.375000   0.750920  -0.001974   x
            x  O            5        -0.001299  -0.001299   0.375533   x
            x  O            6         0.751299  -0.001299   0.375533   x
            x  O            7         0.375000   0.375000   0.375897   x
            x  O            8        -0.001299   0.751299   0.375533   x
            x  O            9         0.751299   0.751299   0.375533   x
            x  O           10         0.375000   0.000381   0.751475   x
            x  O           11         0.000381   0.375000   0.751475   x
            x  O           12         0.749619   0.375000   0.751475   x
            x  O           13         0.375000   0.749619   0.751475   x
            x  Mg           1         0.010100   0.010100   0.011052   x
            x  Mg           2         0.739900   0.010100   0.011052   x
            x  Mg           3         0.375000   0.375000   0.014674   x
            x  Mg           4         0.010100   0.739900   0.011052   x
            x  Mg           5         0.739900   0.739900   0.011052   x
            x  Mg           6         0.375000   0.010683   0.374897   x
            x  Mg           7         0.010683   0.375000   0.374897   x
            x  Mg           8         0.739317   0.375000   0.374897   x
            x  Mg           9         0.375000   0.739317   0.374897   x
            x  Ca           1         0.009736   0.009736   0.738803   x
            x  Ca           2         0.740264   0.009736   0.738803   x
            x  Ca           3         0.375000   0.375000   0.735285   x
            x  Ca           4         0.009736   0.740264   0.738803   x
            x  Ca           5         0.740264   0.740264   0.738803   x
            xxxxxxxxxxxxxxxxxxxxxxxxxxxxxxxxxxxxxxxxxxxxxxxxxxxxxxxxxxxx


------------------------------------------------------------------------ <-- SCF
SCF loop      Energy           Fermi           Energy gain       Timer   <-- SCF
                               energy          per atom          (sec)   <-- SCF
------------------------------------------------------------------------ <-- SCF
Initial  -1.98978954E+004  0.00000000E+000                      7318.55  <-- SCF
      1  -1.99245712E+004  2.03127912E+000   9.87993089E-001    7350.71  <-- SCF
      2  -1.99247620E+004  2.02892875E+000   7.06572522E-003    7394.07  <-- SCF
      3  -1.99648061E+004  2.74854248E+000   1.48311463E+000    7438.57  <-- SCF
      4  -1.99097403E+004  1.69146172E+000  -2.03947465E+000    7482.53  <-- SCF
      5  -1.99117225E+004  1.76475890E+000   7.34142338E-002    7522.49  <-- SCF
      6  -1.99072522E+004  1.85518293E+000  -1.65567281E-001    7560.82  <-- SCF
      7  -1.99073357E+004  1.83647395E+000   3.09452981E-003    7602.01  <-- SCF
      8  -1.99072391E+004  1.81928097E+000  -3.57993513E-003    7640.66  <-- SCF
      9  -1.99072558E+004  1.80780470E+000   6.21219345E-004    7678.36  <-- SCF
     10  -1.99071372E+004  1.79667984E+000  -4.39413380E-003    7716.37  <-- SCF
     11  -1.99071341E+004  1.77779956E+000  -1.15238285E-004    7755.84  <-- SCF
     12  -1.99071338E+004  1.78320512E+000  -1.00200273E-005    7791.68  <-- SCF
     13  -1.99071337E+004  1.78266059E+000  -2.71632839E-006    7827.92  <-- SCF
     14  -1.99071337E+004  1.78273381E+000  -5.36809843E-007    7857.84  <-- SCF
     15  -1.99071337E+004  1.78281662E+000  -1.19319237E-008    7882.47  <-- SCF
     16  -1.99071337E+004  1.78285515E+000   6.60295210E-009    7906.79  <-- SCF
------------------------------------------------------------------------ <-- SCF
 
Final energy, E             =  -19906.68226411     eV
Final free energy (E-TS)    =  -19907.13371191     eV
(energies not corrected for finite basis set)
 
NB est. 0K energy (E-0.5TS)      =  -19906.90798801     eV
 

 *********************************** Forces ***********************************
 *                                                                            *
 *                        Cartesian components (eV/A)                         *
 * -------------------------------------------------------------------------- *
 *                   x                    y                    z              *
 *                                                                            *
 * O         1      0.00000             -0.35376             -0.80721         *
 * O         2     -0.35376              0.00000             -0.80721         *
 * O         3      0.35376              0.00000             -0.80721         *
 * O         4      0.00000              0.35376             -0.80721         *
 * O         5     -0.40493             -0.40493              0.29562         *
 * O         6      0.40493             -0.40493              0.29562         *
 * O         7      0.00000              0.00000              0.43275         *
 * O         8     -0.40493              0.40493              0.29562         *
 * O         9      0.40493              0.40493              0.29562         *
 * O        10      0.00000              0.45837              0.52717         *
 * O        11      0.45837              0.00000              0.52717         *
 * O        12     -0.45837              0.00000              0.52717         *
 * O        13      0.00000             -0.45837              0.52717         *
 * Mg        1      3.94311              3.94311              4.60829         *
 * Mg        2     -3.94311              3.94311              4.60829         *
 * Mg        3      0.00000              0.00000              5.57908         *
 * Mg        4      3.94311             -3.94311              4.60829         *
 * Mg        5     -3.94311             -3.94311              4.60829         *
 * Mg        6     -0.00000              4.11710             -0.04304         *
 * Mg        7      4.11710              0.00000             -0.04304         *
 * Mg        8     -4.11710             -0.00000             -0.04304         *
 * Mg        9      0.00000             -4.11710             -0.04304         *
 * Ca        1      4.01429              4.01429             -4.69673         *
 * Ca        2     -4.01429              4.01429             -4.69673         *
 * Ca        3      0.00000              0.00000             -5.54821         *
 * Ca        4      4.01429             -4.01429             -4.69673         *
 * Ca        5     -4.01429             -4.01429             -4.69673         *
 *                                                                            *
 ******************************************************************************

 ***************** Stress Tensor *****************
 *                                               *
 *          Cartesian components (GPa)           *
 * --------------------------------------------- *
 *             x             y             z     *
 *                                               *
 *  x      3.446229      0.000000      0.000000  *
 *  y      0.000000      3.446229      0.000000  *
 *  z      0.000000      0.000000      1.530623  *
 *                                               *
 *  Pressure:   -2.8077                          *
 *                                               *
[...]
 * O         2      1.91939             -0.00000              1.83398         *
 * O         3     -1.91939              0.00000              1.83398         *
 * O         4      0.00000             -1.91939              1.83398         *
 * O         5      2.20962              2.20962              0.15482         *
 * O         6     -2.20962              2.20962              0.15482         *
 * O         7      0.00000              0.00000             -0.15945         *
 * O         8      2.20962             -2.20962              0.15482         *
 * O         9     -2.20962             -2.20962              0.15482         *
 * O        10      0.00000              2.78410             -2.37852         *
 * O        11      2.78410              0.00000             -2.37852         *
 * O        12     -2.78410              0.00000             -2.37852         *
 * O        13      0.00000             -2.78410             -2.37852         *
 * Mg        1      2.11393              2.11393              2.48069         *
 * Mg        2     -2.11393              2.11393              2.48069         *
 * Mg        3      0.00000              0.00000              2.34448         *
 * Mg        4      2.11393             -2.11393              2.48069         *
 * Mg        5     -2.11393             -2.11393              2.48069         *
 * Mg        6      0.00000              2.01766             -0.10553         *
 * Mg        7      2.01766             -0.00000             -0.10553         *
 * Mg        8     -2.01766              0.00000             -0.10553         *
 * Mg        9      0.00000             -2.01766             -0.10553         *
 * Ca        1      2.90379              2.90379             -2.15251         *
 * Ca        2     -2.90379              2.90379             -2.15251         *
 * Ca        3      0.00000              0.00000             -1.51675         *
 * Ca        4      2.90379             -2.90379             -2.15251         *
 * Ca        5     -2.90379             -2.90379             -2.15251         *
 *                                                                            *
 ******************************************************************************

 ***************** Stress Tensor *****************
 *                                               *
 *          Cartesian components (GPa)           *
 * --------------------------------------------- *
 *             x             y             z     *
 *                                               *
 *  x      6.543402      0.000000      0.000000  *
 *  y      0.000000      6.543402      0.000000  *
 *  z      0.000000      0.000000      7.413127  *
 *                                               *
 *  Pressure:   -6.8333                          *
 *                                               *
 *************************************************

 *********** Constrained Stress Tensor ***********
 *                                               *
 *          Cartesian components (GPa)           *
 * --------------------------------------------- *
 *             x             y             z     *
 *                                               *
 *  x      6.890271      0.000000      0.000000  *
 *  y      0.000000      6.890271      0.000000  *
 *  z      0.000000      0.000000      6.890271  *
 *                                               *
 *  Pressure:   -6.8903                          *
 *                                               *
 *************************************************
  
 +------------+-------------+-------------+-----------------+ <-- min BFGS
 |    Step    |   lambda    |   F.delta   |    enthalpy     | <-- min BFGS
 +------------+-------------+-------------+-----------------+ <-- min BFGS
 |  previous  |    0.000000 |    0.045464 |   -19944.873392 | <-- min BFGS
 | trial step |    1.000000 |    0.045430 |   -19946.126414 | <-- min BFGS
 +------------+-------------+-------------+-----------------+ <-- min BFGS
  
 BFGS: finished iteration    30 with enthalpy= -1.99461264E+004 eV
  
 +-----------+-----------------+-----------------+------------+-----+ <-- BFGS
 | Parameter |      value      |    tolerance    |    units   | OK? | <-- BFGS
 +-----------+-----------------+-----------------+------------+-----+ <-- BFGS
 |  dE/ion   |   4.640822E-002 |   2.000000E-005 |         eV | No  | <-- BFGS
 |  |F|max   |   4.636520E+000 |   5.000000E-002 |       eV/A | No  | <-- BFGS
 |  |dR|max  |   1.635589E-002 |   1.000000E-003 |          A | No  | <-- BFGS
 |   Smax    |   6.833566E+000 |   1.000000E-001 |        GPa | No  | <-- BFGS
 +-----------+-----------------+-----------------+------------+-----+ <-- BFGS
  
 BFGS : WARNING - Geometry optimization failed to converge after         30 steps

================================================================================
 BFGS : Final Configuration:
================================================================================

                           -------------------------------
                                      Unit Cell
                           -------------------------------
        Real Lattice(A)              Reciprocal Lattice(1/A)
   7.6027193   0.0000000   0.0000000        0.8264392   0.0000000   0.0000000
   0.0000000   7.6027193   0.0000000        0.0000000   0.8264392   0.0000000
   0.0000000   0.0000000   7.6027193        0.0000000   0.0000000   0.8264392

                       Lattice parameters(A)       Cell Angles
                    a =    7.602719          alpha =   90.000000
                    b =    7.602719          beta  =   90.000000
                    c =    7.602719          gamma =   90.000000

                Current cell volume =  439.447373 A**3

                           -------------------------------
                                     Cell Contents
                           -------------------------------

            xxxxxxxxxxxxxxxxxxxxxxxxxxxxxxxxxxxxxxxxxxxxxxxxxxxxxxxxxxxx
            x  Element    Atom        Fractional coordinates of atoms  x
            x            Number           u          v          w      x
            x----------------------------------------------------------x
            x  O            1         0.375000   0.006526   0.002289   x
            x  O            2         0.006526   0.375000   0.002289   x
            x  O            3         0.743474   0.375000   0.002289   x
            x  O            4         0.375000   0.743474   0.002289   x
            x  O            5         0.008489   0.008489   0.379571   x
            x  O            6         0.741511   0.008489   0.379571   x
            x  O            7         0.375000   0.375000   0.378780   x
            x  O            8         0.008489   0.741511   0.379571   x
            x  O            9         0.741511   0.741511   0.379571   x
            x  O           10         0.375000   0.021207   0.742337   x
            x  O           11         0.021207   0.375000   0.742337   x
            x  O           12         0.728793   0.375000   0.742337   x
            x  O           13         0.375000   0.728793   0.742337   x
            x  Mg           1         0.042439   0.042439   0.050425   x
            x  Mg           2         0.707561   0.042439   0.050425   x
            x  Mg           3         0.375000   0.375000   0.057681   x
            x  Mg           4         0.042439   0.707561   0.050425   x
            x  Mg           5         0.707561   0.707561   0.050425   x
            x  Mg           6         0.375000   0.044308   0.374214   x
            x  Mg           7         0.044308   0.375000   0.374214   x
            x  Mg           8         0.705692   0.375000   0.374214   x
            x  Mg           9         0.375000   0.705692   0.374214   x
            x  Ca           1         0.052656   0.052656   0.699116   x
            x  Ca           2         0.697344   0.052656   0.699116   x
            x  Ca           3         0.375000   0.375000   0.696735   x
            x  Ca           4         0.052656   0.697344   0.699116   x
            x  Ca           5         0.697344   0.697344   0.699116   x
            xxxxxxxxxxxxxxxxxxxxxxxxxxxxxxxxxxxxxxxxxxxxxxxxxxxxxxxxxxxx


 BFGS : Final Enthalpy     = -1.99461264E+004 eV
 BFGS : Final <frequency>  unchanged from initial value
 BFGS : Final bulk modulus unchanged from initial value
  
  **********************************************************
  *** There were at least     1 warnings during this run ***
  *** => please check the whole of this file carefully!  ***
  **********************************************************

 ***************************** Symmetrised Forces *****************************
 *                                                                            *
 *                        Cartesian components (eV/A)                         *
 * -------------------------------------------------------------------------- *
 *                   x                    y                    z              *
 *                                                                            *
 * O         1      0.00000              1.91939              1.83398         *
 * O         2      1.91939             -0.00000              1.83398         *
 * O         3     -1.91939              0.00000              1.83398         *
 * O         4      0.00000             -1.91939              1.83398         *
 * O         5      2.20962              2.20962              0.15482         *
 * O         6     -2.20962              2.20962              0.15482         *
 * O         7      0.00000              0.00000             -0.15945         *
 * O         8      2.20962             -2.20962              0.15482         *
 * O         9     -2.20962             -2.20962              0.15482         *
 * O        10      0.00000              2.78410             -2.37852         *
 * O        11      2.78410              0.00000             -2.37852         *
 * O        12     -2.78410              0.00000             -2.37852         *
 * O        13      0.00000             -2.78410             -2.37852         *
 * Mg        1      2.11393              2.11393              2.48069         *
 * Mg        2     -2.11393              2.11393              2.48069         *
 * Mg        3      0.00000              0.00000              2.34448         *
 * Mg        4      2.11393             -2.11393              2.48069         *
 * Mg        5     -2.11393             -2.11393              2.48069         *
 * Mg        6      0.00000              2.01766             -0.10553         *
 * Mg        7      2.01766             -0.00000             -0.10553         *
 * Mg        8     -2.01766              0.00000             -0.10553         *
 * Mg        9      0.00000             -2.01766             -0.10553         *
 * Ca        1      2.90379              2.90379             -2.15251         *
 * Ca        2     -2.90379              2.90379             -2.15251         *
 * Ca        3      0.00000              0.00000             -1.51675         *
 * Ca        4      2.90379             -2.90379             -2.15251         *
 * Ca        5     -2.90379             -2.90379             -2.15251         *
 *                                                                            *
 ******************************************************************************

 *********** Symmetrised Stress Tensor ***********
 *                                               *
 *          Cartesian components (GPa)           *
 * --------------------------------------------- *
 *             x             y             z     *
 *                                               *
 *  x      6.833566      0.000000      0.000000  *
 *  y      0.000000      6.833566      0.000000  *
 *  z      0.000000      0.000000      6.833566  *
 *                                               *
 *  Pressure:   -6.8336                          *
 *                                               *
 *************************************************

 Pseudo atomic calculation performed for O 2s2 2p4

 Converged in 30 iterations to a total energy of -431.1785 eV


 Pseudo atomic calculation performed for Mg 2p6 3s2

 Converged in 23 iterations to a total energy of -1024.5896 eV


 Pseudo atomic calculation performed for Ca 3s2 3p6 4s2

 Converged in 24 iterations to a total energy of -1000.4330 eV

Charge spilling parameter for spin component 1 = 0.33%

     Atomic Populations (Mulliken)
     -----------------------------
Species   Ion     s      p      d      f     Total  Charge (e)
==============================================================
  O        1     1.97   4.51   0.00   0.00   6.48    -0.48
  O        2     1.97   4.51   0.00   0.00   6.48    -0.48
  O        3     1.97   4.51   0.00   0.00   6.48    -0.48
  O        4     1.97   4.51   0.00   0.00   6.48    -0.48
  O        5     1.96   4.59   0.00   0.00   6.55    -0.55
  O        6     1.96   4.59   0.00   0.00   6.55    -0.55
  O        7     1.91   4.94   0.00   0.00   6.84    -0.84
  O        8     1.96   4.59   0.00   0.00   6.55    -0.55
  O        9     1.96   4.59   0.00   0.00   6.55    -0.55
  O       10     1.95   4.70   0.00   0.00   6.65    -0.65
  O       11     1.95   4.70   0.00   0.00   6.65    -0.65
  O       12     1.95   4.70   0.00   0.00   6.65    -0.65
  O       13     1.95   4.70   0.00   0.00   6.65    -0.65
  Mg       1     0.84   6.82   0.00   0.00   7.66     0.34
  Mg       2     0.84   6.82   0.00   0.00   7.66     0.34
  Mg       3     0.87   6.82   0.00   0.00   7.69     0.31
  Mg       4     0.84   6.82   0.00   0.00   7.66     0.34
  Mg       5     0.84   6.82   0.00   0.00   7.66     0.34
  Mg       6     0.80   6.87   0.00   0.00   7.67     0.33
  Mg       7     0.80   6.87   0.00   0.00   7.67     0.33
  Mg       8     0.80   6.87   0.00   0.00   7.67     0.33
  Mg       9     0.80   6.87   0.00   0.00   7.67     0.33
  Ca       1     2.23   5.98   0.91   0.00   9.11     0.89
  Ca       2     2.23   5.98   0.91   0.00   9.11     0.89
  Ca       3     2.27   5.99   0.69   0.00   8.95     1.05
  Ca       4     2.23   5.98   0.91   0.00   9.11     0.89
  Ca       5     2.23   5.98   0.91   0.00   9.11     0.89
==============================================================

            Bond              Population      Length (A)
============================================================
         O 4  -- O 13             -0.04        1.97949
         O 3  -- O 12             -0.04        1.97949
         O 2  -- O 11             -0.04        1.97949
         O 1  -- O 10             -0.04        1.97949
         O 2  -- O 3              -0.05        1.99991
         O 1  -- O 4              -0.05        1.99991
         O 8  -- O 9              -0.06        2.02976
         O 6  -- O 9              -0.06        2.02976
         O 5  -- O 8              -0.06        2.02976
         O 5  -- O 6              -0.06        2.02976
         O 11 -- O 12             -0.10        2.22315
         O 10 -- O 13             -0.10        2.22315
         O 7  -- Ca 3              0.20        2.41732
         O 7  -- Mg 3              0.17        2.44122
         O 9  -- Ca 5              0.25        2.47539
         O 8  -- Ca 4              0.25        2.47539
         O 6  -- Ca 2              0.25        2.47539
         O 5  -- Ca 1              0.25        2.47539
         O 13 -- Ca 4              0.22        2.48415
         O 12 -- Ca 2              0.22        2.48415
         O 11 -- Ca 1              0.22        2.48415
         O 10 -- Ca 1              0.22        2.48415
         O 13 -- Ca 5              0.22        2.48415
         O 12 -- Ca 5              0.22        2.48415
         O 11 -- Ca 4              0.22        2.48415
         O 10 -- Ca 2              0.22        2.48415
         O 7  -- Mg 9              0.18        2.51440
         O 7  -- Mg 8              0.18        2.51440
         O 7  -- Mg 7              0.18        2.51440
         O 7  -- Mg 6              0.18        2.51440
         O 5  -- Mg 1              0.24        2.52889
         O 9  -- Mg 5              0.24        2.52889
         O 8  -- Mg 4              0.24        2.52889
         O 6  -- Mg 2              0.24        2.52889
         Mg 4 -- Mg 5             -0.02        2.54598
         Mg 2 -- Mg 5             -0.02        2.54598
         Mg 1 -- Mg 4             -0.02        2.54598
         Mg 1 -- Mg 2             -0.02        2.54598
         O 4  -- Mg 5              0.24        2.56927
         O 3  -- Mg 5              0.24        2.56927
         O 2  -- Mg 4              0.24        2.56927
         O 1  -- Mg 2              0.24        2.56927
         O 4  -- Mg 4              0.24        2.56927
         O 3  -- Mg 2              0.24        2.56927
         O 2  -- Mg 1              0.24        2.56927
         O 1  -- Mg 1              0.24        2.56927
         Mg 7 -- Mg 8             -0.02        2.57441
         Mg 6 -- Mg 9             -0.02        2.57441
         Mg 5 -- Ca 5             -0.29        2.67316
         Mg 4 -- Ca 4             -0.29        2.67316
         Mg 2 -- Ca 2             -0.29        2.67316
         Mg 1 -- Ca 1             -0.29        2.67316
         Ca 4 -- Ca 5             -0.19        2.70134
         Ca 2 -- Ca 5             -0.19        2.70134
         Ca 1 -- Ca 4             -0.19        2.70134
         Ca 1 -- Ca 2             -0.19        2.70134
         O 13 -- Ca 3              0.13        2.71204
         O 12 -- Ca 3              0.13        2.71204
         O 11 -- Ca 3              0.13        2.71204
         O 10 -- Ca 3              0.13        2.71204
         Mg 3 -- Ca 3             -0.30        2.74417
         O 8  -- Mg 9              0.13        2.80005
         O 6  -- Mg 8              0.13        2.80005
         O 5  -- Mg 7              0.13        2.80005
         O 5  -- Mg 6              0.13        2.80005
         O 9  -- Mg 9              0.13        2.80005
         O 9  -- Mg 8              0.13        2.80005
         O 8  -- Mg 7              0.13        2.80005
         O 6  -- Mg 6              0.13        2.80005
         O 13 -- Mg 9              0.16        2.80424
         O 12 -- Mg 8              0.16        2.80424
         O 11 -- Mg 7              0.16        2.80424
         O 10 -- Mg 6              0.16        2.80424
         O 4  -- Mg 3              0.10        2.83288
         O 3  -- Mg 3              0.10        2.83288
         O 2  -- Mg 3              0.10        2.83288
         O 1  -- Mg 3              0.10        2.83288
         O 2  -- Mg 7              0.10        2.84220
         O 1  -- Mg 6              0.10        2.84220
         O 4  -- Mg 9              0.10        2.84220
         O 3  -- Mg 8              0.10        2.84220
         O 6  -- O 8              -0.01        2.87052
         O 5  -- O 9              -0.01        2.87052
         O 4  -- O 10             -0.01        2.89214
         O 3  -- O 11             -0.01        2.89214
         O 2  -- O 12             -0.01        2.89214
         O 1  -- O 13             -0.01        2.89214
============================================================


Writing model to dan_0.check

Writing analysis data to dan_0.castep_bin
 
 A BibTeX formatted list of references used in this run has been written to 
 dan_0.bib
 
Initialisation time =     32.97 s
Calculation time    =  21858.04 s
Finalisation time   =      1.49 s
Total time          =  21892.50 s
Peak Memory Use     = 1000932 kB
  
Overall parallel efficiency rating: Excellent (96%)                             
  
Data was distributed by:-
k-point (2-way); efficiency rating: Excellent (96%)                             
